 Entering Gaussian System, 
                         Standard orientation:
 ---------------------------------------------------------------------
 Center     Atomic      Atomic             Coordinates (Angstroms)
 Number     Number       Type             X           Y           Z
 ---------------------------------------------------------------------
      1          8           0        0.000000   -0.000000    0.000000 
      2          7           0        0.000000   -0.000000    1.392706 
      3          1           0        0.944866    0.000000   -0.252162 
      4          8           0        1.085792   -0.000514    1.865018 
 ---------------------------------------------------------------------

    99 basis functions,   99 primitive gaussians,   9 cartesian basis functions
    99 alpha electrons       99 beta electrons

 **********************************************************************

 Harmonic frequencies (cm**-1), IR intensities (KM/Mole), Raman scattering
 activities (A**4/AMU), depolarization ratios for plane and unpolarized
 incident light, reduced masses (AMU), force constants (mDyne/A),
 and normal coordinates: 
                      1                      2                      3 
                      A                      A                      A 
 Frequencies --     -0.0000                -0.0000                -0.0000 
 Red. masses --      0.0000                 0.0000                 0.0000 
 Frc consts  --      0.1000                 0.1000                 0.1000
 IR Inten    --      1.0000                 1.0000                 1.0000
  Atom  AN      X      Y      Z        X      Y      Z        X      Y      Z 
     1   8     0.20  -0.00   0.40     0.01  -0.17  -0.00    -0.60  -0.00   0.27 
     2   7     0.01   0.00   0.40     0.00   0.43  -0.00    -0.10   0.01   0.27 
     3   1     0.23  -0.00   0.53     0.01   0.88   0.00    -0.69   0.01  -0.07 
     4   8    -0.05  -0.00   0.55    -0.00   0.09   0.00     0.07   0.01  -0.12 
                      4                      5                      6 
                      A                      A                      A 
 Frequencies --     -0.0000                 0.0000                 0.0000 
 Red. masses --      0.0000                 0.0000                 0.0000 
 Frc consts  --      0.1000                 0.1000                 0.1000
 IR Inten    --      1.0000                 1.0000                 1.0000
  Atom  AN      X      Y      Z        X      Y      Z        X      Y      Z 
     1   8     0.00   0.34  -0.00    -0.00   0.26   0.00     0.00   0.11  -0.00 
     2   7     0.00   0.24  -0.00    -0.00   0.05   0.00     0.00  -0.16  -0.00 
     3   1     0.00  -0.89   0.00    -0.00   0.92  -0.00     0.00   0.94   0.00 
     4   8    -0.00   0.17   0.00     0.00  -0.28  -0.00    -0.00   0.28   0.00 
                      7                      8                      9 
                      A                      A                      A 
 Frequencies --      0.0000               625.2831               878.9307 
 Red. masses --      0.0000                -0.0000                 0.0000 
 Frc consts  --      0.1000                 0.1000                 0.1000
 IR Inten    --      1.0000                 1.0000                 1.0000
  Atom  AN      X      Y      Z        X      Y      Z        X      Y      Z 
     1   8     0.15  -0.00   0.15    -0.17   0.00  -0.34    -0.10   0.00   0.29 
     2   7     0.58   0.00   0.15     0.18  -0.00   0.10     0.16  -0.00  -0.50 
     3   1     0.08  -0.00  -0.15    -0.31   0.00  -0.80    -0.33   0.00  -0.70 
     4   8     0.73   0.00  -0.19     0.03  -0.00   0.30    -0.02   0.00   0.19 
                     10                     11                     12 
                      A                      A                      A 
 Frequencies --   1331.3845              1662.7483              3599.3155 
 Red. masses --     -0.0000                -0.0000                -0.0000 
 Frc consts  --      0.1000                 0.1000                 0.1000
 IR Inten    --      1.0000                 1.0000                 1.0000
  Atom  AN      X      Y      Z        X      Y      Z        X      Y      Z 
     1   8    -0.09   0.00  -0.06     0.07  -0.00  -0.03    -0.06  -0.00   0.01 
     2   7    -0.00   0.00  -0.09    -0.52   0.00  -0.08    -0.00  -0.00   0.00 
     3   1     0.20  -0.00   0.96    -0.13   0.00  -0.72     0.96   0.00  -0.27 
     4   8     0.08  -0.00   0.08     0.40  -0.00   0.14    -0.00   0.00  -0.00 
