 Entering Gaussian System, 
                         Standard orientation:
 ---------------------------------------------------------------------
 Center     Atomic      Atomic             Coordinates (Angstroms)
 Number     Number       Type             X           Y           Z
 ---------------------------------------------------------------------
      1          6           0       -1.609220   -0.084380    0.229370 
      2          6           0       -1.609130   -0.084360    1.618030 
      3          6           0       -0.401450   -0.083780   -0.453580 
      4          1           0       -2.532420   -0.076610   -0.337720 
      5          6           0       -0.406370   -0.067620    2.315280 
      6          1           0       -2.551260   -0.083750    2.154220 
      7          6           0        0.824440   -0.103460    0.225220 
      8          8           0       -0.434820   -0.097420   -1.827780 
      9          6           0        0.795540   -0.074180    1.617940 
     10          1           0       -0.403460   -0.052030    3.398940 
     11          6           0        2.080420   -0.157550   -0.575000 
     12          6           0        0.537480    0.668470   -2.451370 
     13          1           0        1.735950   -0.074000    2.159730 
     14          1           0        2.908290    0.431910   -0.181770 
     15          1           0        2.391610   -1.166580   -0.854960 
     16          1           0        1.731310    0.328180   -1.622020 
     17          1           0        0.685570    0.338460   -3.474690 
     18          1           0        0.414490    1.744260   -2.308810 
 ---------------------------------------------------------------------

    99 basis functions,   99 primitive gaussians,   9 cartesian basis functions
    99 alpha electrons       99 beta electrons

 **********************************************************************

 Harmonic frequencies (cm**-1), IR intensities (KM/Mole), Raman scattering
 activities (A**4/AMU), depolarization ratios for plane and unpolarized
 incident light, reduced masses (AMU), force constants (mDyne/A),
 and normal coordinates: 
                      1                      2                      3 
                      A                      A                      A 
 Frequencies --      0.0000                 0.0000                 0.0000 
 Red. masses --      2.0681                 1.1494                 3.0650 
 Frc consts  --      0.1000                 0.1000                 0.1000
 IR Inten    --      1.0000                 1.0000                 1.0000
  Atom  AN      X      Y      Z        X      Y      Z        X      Y      Z 
     1   6     0.00   0.00  -0.02     0.00  -0.00   0.00    -0.01  -0.18   0.00 
     2   6     0.00   0.04  -0.01     0.00  -0.00  -0.00     0.01  -0.13   0.00 
     3   6     0.00  -0.04  -0.00    -0.00  -0.00  -0.01    -0.01  -0.02  -0.01 
     4   1     0.00  -0.01  -0.02     0.00   0.00  -0.00    -0.01  -0.30   0.01 
     5   6    -0.00   0.05  -0.01     0.00  -0.00  -0.00     0.01   0.11  -0.01 
     6   1    -0.00   0.07  -0.02     0.00   0.00   0.00     0.01  -0.24   0.01 
     7   6     0.00  -0.03   0.01     0.00   0.00  -0.01    -0.01   0.07  -0.01 
     8   8     0.10  -0.15  -0.01    -0.02  -0.00   0.00    -0.03   0.14  -0.00 
     9   6     0.01   0.03   0.00     0.00   0.00   0.00     0.00   0.18  -0.01 
    10   1    -0.01   0.08  -0.01     0.00  -0.00  -0.00     0.01   0.20  -0.01 
    11   6    -0.04  -0.06  -0.05     0.00  -0.02   0.04    -0.03  -0.22  -0.03 
    12   6    -0.07   0.16   0.09     0.09  -0.02   0.05     0.07   0.05   0.05 
    13   1     0.00   0.03   0.01    -0.00  -0.00   0.00     0.01   0.28  -0.02 
    14   1     0.12  -0.41   0.14    -0.00   0.07  -0.09     0.10  -0.34  -0.11 
    15   1    -0.31  -0.03  -0.44    -0.03   0.04  -0.17    -0.24  -0.31   0.08 
    16   1     0.01   0.38   0.13    -0.66   0.28  -0.64     0.06  -0.25  -0.07 
    17   1     0.10   0.25   0.09    -0.04   0.03   0.00    -0.07   0.19  -0.01 
    18   1    -0.36   0.12   0.14    -0.10  -0.01  -0.09     0.29   0.05   0.23 
                      4                      5                      6 
                      A                      A                      A 
 Frequencies --      0.0000                 0.0000                 0.0000 
 Red. masses --      1.3589                 3.3158                 3.2533 
 Frc consts  --      0.1000                 0.1000                 0.1000
 IR Inten    --      1.0000                 1.0000                 1.0000
  Atom  AN      X      Y      Z        X      Y      Z        X      Y      Z 
     1   6    -0.00  -0.01  -0.01     0.00  -0.19   0.01     0.09  -0.04  -0.06 
     2   6    -0.00   0.06  -0.02     0.00   0.09   0.01    -0.08   0.03  -0.08 
     3   6    -0.00  -0.05  -0.01     0.00  -0.13  -0.00     0.16  -0.01   0.10 
     4   1    -0.00  -0.00  -0.02     0.00  -0.22   0.01     0.20  -0.06  -0.22 
     5   6     0.00   0.04  -0.02     0.01   0.19   0.00    -0.12   0.01  -0.01 
     6   1     0.00   0.12  -0.01     0.00   0.25   0.00    -0.13   0.08  -0.17 
     7   6     0.00  -0.06  -0.02     0.00  -0.23  -0.00     0.16   0.03   0.10 
     8   8    -0.01  -0.05  -0.01    -0.06   0.15  -0.01    -0.00   0.05   0.12 
     9   6     0.00  -0.02  -0.02    -0.00  -0.12  -0.00    -0.02  -0.05   0.13 
    10   1     0.01   0.09  -0.02     0.01   0.46  -0.00    -0.22   0.03  -0.01 
    11   6     0.03   0.00   0.01     0.03   0.07   0.03     0.04  -0.03  -0.14 
    12   6    -0.03   0.06   0.09     0.01   0.05  -0.02    -0.14   0.01  -0.10 
    13   1    -0.00  -0.02  -0.02     0.00  -0.10  -0.01    -0.11  -0.11   0.28 
    14   1    -0.13   0.34  -0.16    -0.05   0.06   0.24     0.15   0.00  -0.43 
    15   1     0.30  -0.00   0.32     0.17   0.19  -0.23    -0.05  -0.06  -0.14 
    16   1    -0.05  -0.33  -0.14     0.01   0.28   0.17    -0.17  -0.10  -0.14 
    17   1    -0.25   0.40  -0.05     0.22  -0.18   0.08    -0.42   0.00  -0.14 
    18   1     0.10   0.02   0.48    -0.05   0.08  -0.28    -0.09   0.02  -0.09 
                      7                      8                      9 
                      A                      A                      A 
 Frequencies --      0.0000                 0.0000                 0.0000 
 Red. masses --      3.2576                 3.9082                 1.4826 
 Frc consts  --      0.1000                 0.1000                 0.1000
 IR Inten    --      1.0000                 1.0000                 1.0000
  Atom  AN      X      Y      Z        X      Y      Z        X      Y      Z 
     1   6    -0.02  -0.19   0.02    -0.04  -0.07  -0.04    -0.02   0.01   0.04 
     2   6     0.03   0.16   0.04    -0.05   0.10  -0.07    -0.05  -0.02   0.05 
     3   6    -0.03   0.04  -0.03    -0.00  -0.00   0.04    -0.01  -0.02   0.02 
     4   1    -0.06  -0.47   0.09     0.02  -0.15  -0.13    -0.02   0.07   0.04 
     5   6     0.03   0.01   0.06    -0.00  -0.05  -0.15    -0.02   0.01   0.01 
     6   1     0.03   0.30   0.04    -0.02   0.20  -0.01    -0.04  -0.01   0.06 
     7   6    -0.07   0.23   0.02     0.08   0.17  -0.08    -0.00  -0.05  -0.02 
     8   8     0.09  -0.03  -0.04    -0.17   0.01   0.09     0.05   0.01   0.02 
     9   6    -0.00  -0.18   0.03     0.03  -0.04  -0.11    -0.03   0.00  -0.02 
    10   1     0.03  -0.05   0.06     0.03  -0.16  -0.15     0.03   0.05   0.01 
    11   6    -0.11   0.03  -0.01     0.17   0.05   0.01    -0.00   0.09  -0.06 
    12   6     0.07   0.01  -0.07    -0.02  -0.13   0.24     0.07  -0.08  -0.05 
    13   1     0.03  -0.53  -0.02    -0.01  -0.18  -0.05    -0.04   0.07  -0.01 
    14   1    -0.01  -0.04  -0.13     0.31  -0.29   0.23     0.07  -0.16   0.15 
    15   1    -0.28  -0.07   0.15    -0.11   0.01  -0.18    -0.12   0.13  -0.37 
    16   1    -0.01  -0.08  -0.09     0.23   0.23   0.11     0.10   0.20  -0.02 
    17   1    -0.08   0.10  -0.12     0.11  -0.10   0.25    -0.46   0.24  -0.23 
    18   1     0.12   0.00   0.04     0.10  -0.12   0.28     0.44  -0.09   0.36 
                     10                     11                     12 
                      A                      A                      A 
 Frequencies --      0.0000                 0.0000                 0.0000 
 Red. masses --      3.5179                 3.3230                 5.1169 
 Frc consts  --      0.1000                 0.1000                 0.1000
 IR Inten    --      1.0000                 1.0000                 1.0000
  Atom  AN      X      Y      Z        X      Y      Z        X      Y      Z 
     1   6     0.12  -0.02  -0.08    -0.02   0.08  -0.10    -0.18  -0.05  -0.12 
     2   6     0.13   0.08  -0.09     0.09  -0.16  -0.13     0.06   0.09  -0.15 
     3   6     0.05  -0.10  -0.10    -0.01   0.16   0.00    -0.07  -0.13   0.12 
     4   1     0.10   0.15  -0.04    -0.02  -0.14  -0.10    -0.16   0.19  -0.15 
     5   6     0.03  -0.11   0.09     0.06   0.20  -0.07     0.11  -0.13  -0.18 
     6   1     0.08   0.27  -0.18     0.12  -0.50  -0.08     0.16   0.36   0.04 
     7   6    -0.02   0.01   0.09    -0.03   0.00   0.06    -0.07  -0.06   0.07 
     8   8    -0.16   0.02  -0.13    -0.03  -0.03   0.04     0.13   0.07   0.20 
     9   6     0.03   0.08   0.12     0.10  -0.15   0.04     0.19   0.09   0.02 
    10   1    -0.11  -0.18   0.09    -0.07   0.32  -0.07    -0.04  -0.12  -0.18 
    11   6    -0.05   0.02   0.17    -0.07   0.02   0.11    -0.22   0.04  -0.02 
    12   6    -0.06  -0.03  -0.05    -0.05  -0.07   0.02     0.04  -0.01   0.01 
    13   1     0.06   0.21   0.06     0.11  -0.39   0.02     0.20   0.35  -0.00 
    14   1     0.07  -0.22   0.28    -0.05  -0.06   0.20    -0.28   0.12  -0.01 
    15   1    -0.24   0.03  -0.09    -0.11   0.05  -0.03    -0.11   0.03   0.12 
    16   1    -0.08   0.14   0.16    -0.06   0.08   0.09    -0.03  -0.06  -0.03 
    17   1    -0.29   0.27  -0.19    -0.29   0.09  -0.07    -0.14  -0.16   0.04 
    18   1     0.13  -0.05   0.26     0.04  -0.07   0.17     0.14   0.02  -0.09 
                     13                     14                     15 
                      A                      A                      A 
 Frequencies --     -0.0000                 0.0000                 0.0000 
 Red. masses --      2.3152                 1.4009                 4.5015 
 Frc consts  --      0.1000                 0.1000                 0.1000
 IR Inten    --      1.0000                 1.0000                 1.0000
  Atom  AN      X      Y      Z        X      Y      Z        X      Y      Z 
     1   6     0.04   0.03  -0.03     0.03  -0.01   0.01    -0.30   0.01  -0.02 
     2   6     0.04  -0.05  -0.03    -0.01  -0.10   0.01    -0.06  -0.05   0.03 
     3   6     0.01  -0.04  -0.02     0.02  -0.05  -0.00    -0.13  -0.05   0.03 
     4   1     0.03   0.20  -0.01     0.04   0.56   0.00    -0.37   0.22   0.07 
     5   6    -0.02   0.03   0.08     0.00  -0.01  -0.02     0.02   0.01  -0.02 
     6   1    -0.00   0.03  -0.11    -0.01   0.46   0.00     0.07   0.11   0.27 
     7   6    -0.01   0.01   0.03    -0.00   0.09  -0.02     0.09   0.06   0.11 
     8   8    -0.05  -0.00  -0.05     0.01  -0.00   0.02    -0.05  -0.03  -0.16 
     9   6     0.00  -0.04   0.09    -0.02  -0.08  -0.05     0.19  -0.03   0.20 
    10   1    -0.12   0.18   0.08     0.05   0.57  -0.03    -0.17   0.17  -0.02 
    11   6    -0.12   0.08  -0.20    -0.00   0.01   0.05     0.22  -0.02  -0.03 
    12   6     0.05  -0.06   0.13    -0.01   0.01  -0.01     0.04   0.05  -0.09 
    13   1     0.01   0.06   0.08    -0.02   0.18  -0.06     0.12  -0.01   0.33 
    14   1    -0.07   0.09  -0.32     0.06  -0.07   0.02     0.33  -0.04  -0.21 
    15   1    -0.11   0.05  -0.09    -0.13  -0.06   0.15     0.11  -0.02  -0.12 
    16   1     0.02  -0.03  -0.04     0.01  -0.03  -0.02     0.01  -0.00  -0.01 
    17   1     0.62  -0.12   0.25    -0.10   0.00  -0.02     0.11   0.15  -0.12 
    18   1     0.31  -0.06   0.26    -0.09   0.01  -0.07    -0.00   0.03  -0.02 
                     16                     17                     18 
                      A                      A                      A 
 Frequencies --      0.0000                 0.0000                 0.0000 
 Red. masses --      1.7997                 3.5891                 1.7383 
 Frc consts  --      0.1000                 0.1000                 0.1000
 IR Inten    --      1.0000                 1.0000                 1.0000
  Atom  AN      X      Y      Z        X      Y      Z        X      Y      Z 
     1   6     0.02   0.03   0.02     0.10   0.03   0.12     0.02  -0.11   0.01 
     2   6    -0.03  -0.02   0.03    -0.20   0.02   0.11    -0.02  -0.06   0.01 
     3   6     0.03  -0.20   0.02     0.09   0.04   0.05    -0.00   0.16  -0.00 
     4   1     0.05   0.47  -0.03     0.23  -0.33  -0.11     0.03   0.37   0.00 
     5   6     0.00   0.12  -0.04     0.00  -0.04  -0.25    -0.01  -0.00  -0.03 
     6   1    -0.02  -0.28   0.05    -0.13  -0.07   0.22    -0.02   0.55   0.00 
     7   6     0.01   0.06   0.00     0.07  -0.03   0.06     0.00  -0.06   0.01 
     8   8    -0.01   0.02  -0.01    -0.06  -0.03  -0.11     0.00  -0.02  -0.02 
     9   6     0.01   0.02  -0.02     0.13  -0.03  -0.00     0.03   0.12   0.01 
    10   1     0.07  -0.54  -0.03     0.15   0.19  -0.25    -0.01  -0.12  -0.03 
    11   6    -0.04   0.02   0.03    -0.16   0.03   0.08    -0.02  -0.03  -0.00 
    12   6     0.01   0.02  -0.02     0.01   0.02  -0.04    -0.02  -0.02   0.00 
    13   1    -0.01  -0.54  -0.00     0.03   0.27   0.17     0.01  -0.60   0.05 
    14   1    -0.01  -0.01   0.01    -0.11  -0.00   0.01    -0.14   0.10   0.04 
    15   1    -0.10  -0.02   0.09    -0.23  -0.00   0.12     0.17   0.07  -0.17 
    16   1    -0.00  -0.02   0.00    -0.16  -0.05   0.07    -0.05   0.05   0.07 
    17   1     0.03   0.01  -0.02     0.35   0.10  -0.02     0.08   0.01   0.01 
    18   1     0.03   0.03  -0.03     0.18   0.00   0.16     0.07  -0.03   0.10 
                     19                     20                     21 
                      A                      A                      A 
 Frequencies --      0.0000                 0.0000                 0.0000 
 Red. masses --      1.5628                 1.3091                 1.5506 
 Frc consts  --      0.1000                 0.1000                 0.1000
 IR Inten    --      1.0000                 1.0000                 1.0000
  Atom  AN      X      Y      Z        X      Y      Z        X      Y      Z 
     1   6     0.01  -0.14   0.00    -0.00   0.06   0.00    -0.04   0.01  -0.01 
     2   6    -0.00   0.06   0.00     0.00  -0.11  -0.00     0.07  -0.00  -0.00 
     3   6    -0.01   0.11  -0.01     0.00  -0.01   0.00    -0.00  -0.00   0.02 
     4   1    -0.00   0.58   0.03    -0.00  -0.36  -0.00    -0.09  -0.05   0.07 
     5   6    -0.00   0.07  -0.01     0.00   0.10  -0.00     0.01  -0.00  -0.02 
     6   1     0.00  -0.26   0.01    -0.00   0.65  -0.01     0.13   0.04   0.09 
     7   6     0.00  -0.02   0.01     0.00  -0.01  -0.00     0.02  -0.02   0.03 
     8   8     0.01  -0.01  -0.01    -0.01   0.00   0.00     0.04   0.00   0.02 
     9   6     0.00  -0.09   0.00    -0.00  -0.05   0.00    -0.10   0.01  -0.07 
    10   1    -0.00  -0.44  -0.01     0.01  -0.57   0.01     0.12   0.01  -0.03 
    11   6     0.01   0.01   0.01     0.00   0.01  -0.00     0.03   0.02   0.11 
    12   6    -0.02  -0.02   0.01     0.01   0.00   0.00    -0.09   0.01  -0.05 
    13   1    -0.00   0.58   0.01    -0.00   0.30   0.00    -0.10  -0.03  -0.07 
    14   1     0.07  -0.03  -0.07     0.03  -0.03   0.01     0.28   0.06  -0.51 
    15   1    -0.06  -0.02   0.02    -0.04  -0.02   0.04    -0.21   0.03  -0.22 
    16   1    -0.03  -0.03  -0.01     0.01  -0.02  -0.02    -0.30  -0.09   0.17 
    17   1     0.01   0.00   0.01    -0.02   0.00  -0.00     0.33  -0.08   0.05 
    18   1    -0.03  -0.02   0.02    -0.02   0.00  -0.02     0.40   0.02   0.21 
                     22                     23                     24 
                      A                      A                      A 
 Frequencies --      0.0000                 0.0000                 0.0000 
 Red. masses --      1.4651                 2.0571                 3.0429 
 Frc consts  --      0.1000                 0.1000                 0.1000
 IR Inten    --      1.0000                 1.0000                 1.0000
  Atom  AN      X      Y      Z        X      Y      Z        X      Y      Z 
     1   6     0.01  -0.01   0.01    -0.05  -0.01  -0.12     0.07   0.03   0.04 
     2   6     0.02  -0.00  -0.00    -0.15  -0.00   0.05    -0.07  -0.00   0.05 
     3   6    -0.02   0.04  -0.02     0.02   0.02  -0.01    -0.04  -0.05  -0.19 
     4   1    -0.04  -0.02   0.09     0.21   0.00  -0.58    -0.14  -0.07   0.38 
     5   6    -0.01  -0.01  -0.02     0.05   0.00   0.17    -0.03  -0.00  -0.06 
     6   1     0.03   0.03   0.01    -0.24   0.01  -0.07    -0.14   0.00  -0.06 
     7   6     0.01  -0.12   0.01     0.01  -0.03  -0.02    -0.06   0.02   0.01 
     8   8    -0.01  -0.00  -0.01     0.03   0.02  -0.01     0.15   0.11  -0.07 
     9   6    -0.01   0.05   0.00     0.09   0.01  -0.04     0.10  -0.00   0.05 
    10   1    -0.04   0.03  -0.02     0.30  -0.00   0.18    -0.14   0.01  -0.06 
    11   6     0.02   0.13  -0.01     0.00   0.03   0.04     0.01  -0.02   0.04 
    12   6     0.03   0.00   0.04    -0.05  -0.02   0.01    -0.13  -0.11   0.15 
    13   1    -0.04  -0.22   0.06     0.32  -0.03  -0.41     0.13  -0.00   0.00 
    14   1     0.37  -0.29  -0.13     0.10  -0.04  -0.08     0.11   0.14  -0.41 
    15   1    -0.51  -0.17   0.43    -0.15  -0.03   0.05     0.01   0.06  -0.25 
    16   1     0.08  -0.22  -0.21    -0.08  -0.06  -0.01     0.01   0.02   0.16 
    17   1    -0.14  -0.01   0.01     0.04  -0.04   0.04    -0.42  -0.29   0.17 
    18   1    -0.20   0.00  -0.14     0.04  -0.01   0.04    -0.10  -0.07  -0.07 
                     25                     26                     27 
                      A                      A                      A 
 Frequencies --      0.0000                 0.0000                 0.0000 
 Red. masses --      1.8373                 1.4266                 1.1565 
 Frc consts  --      0.1000                 0.1000                 0.1000
 IR Inten    --      1.0000                 1.0000                 1.0000
  Atom  AN      X      Y      Z        X      Y      Z        X      Y      Z 
     1   6     0.08  -0.00   0.08     0.04  -0.00  -0.02    -0.02   0.00   0.02 
     2   6    -0.03   0.00  -0.05     0.01  -0.00   0.03    -0.04  -0.00  -0.05 
     3   6    -0.06  -0.00   0.00    -0.03   0.00  -0.01     0.02  -0.00   0.01 
     4   1    -0.01   0.01   0.24     0.20  -0.00  -0.29    -0.21   0.00   0.32 
     5   6    -0.04   0.00   0.01    -0.00  -0.00  -0.03     0.05  -0.00   0.01 
     6   1    -0.26  -0.01  -0.45     0.12   0.01   0.21    -0.29  -0.01  -0.49 
     7   6    -0.07  -0.00  -0.03    -0.06  -0.00   0.06     0.01  -0.00   0.01 
     8   8    -0.05  -0.07   0.08    -0.06  -0.02   0.03    -0.01   0.02   0.02 
     9   6     0.11  -0.00  -0.01    -0.02   0.00  -0.01    -0.00   0.00   0.01 
    10   1    -0.43  -0.00   0.01     0.03  -0.00  -0.03     0.48   0.00   0.01 
    11   6     0.05   0.01   0.03    -0.01  -0.01   0.02    -0.01  -0.00   0.01 
    12   6     0.04   0.09  -0.06     0.13   0.00   0.01     0.03  -0.04  -0.03 
    13   1     0.32  -0.00  -0.36     0.03   0.00  -0.11    -0.06  -0.01   0.10 
    14   1     0.13  -0.00  -0.14     0.12   0.19  -0.57     0.02   0.05  -0.15 
    15   1    -0.04   0.01  -0.09     0.03   0.07  -0.24    -0.02   0.00  -0.02 
    16   1     0.01  -0.07  -0.00     0.27   0.07   0.27     0.05   0.04   0.08 
    17   1     0.08  -0.08   0.00    -0.17   0.13  -0.08     0.15   0.22  -0.10 
    18   1     0.32   0.11  -0.04    -0.34  -0.03  -0.08    -0.34  -0.11   0.15 
                     28                     29                     30 
                      A                      A                      A 
 Frequencies --      0.0000                 0.0000                 0.0000 
 Red. masses --      1.2454                 2.4438                 3.7787 
 Frc consts  --      0.1000                 0.1000                 0.1000
 IR Inten    --      1.0000                 1.0000                 1.0000
  Atom  AN      X      Y      Z        X      Y      Z        X      Y      Z 
     1   6    -0.01   0.00   0.02    -0.08  -0.01  -0.02     0.01   0.00   0.13 
     2   6     0.02   0.00   0.01     0.03   0.00  -0.02     0.05  -0.00  -0.09 
     3   6     0.02  -0.01   0.03     0.06   0.02   0.11    -0.03  -0.00   0.30 
     4   1    -0.03  -0.01   0.05    -0.30   0.01   0.35     0.33  -0.00  -0.36 
     5   6    -0.05   0.00   0.01    -0.06  -0.00   0.06     0.06  -0.00  -0.07 
     6   1     0.10   0.00   0.16    -0.05   0.00  -0.14    -0.11  -0.00  -0.41 
     7   6     0.02  -0.00  -0.02     0.22  -0.01   0.02    -0.16   0.01   0.10 
     8   8     0.03   0.06   0.01    -0.03  -0.02  -0.10     0.07   0.04  -0.19 
     9   6     0.02   0.00  -0.03    -0.00  -0.00  -0.11    -0.09   0.00   0.02 
    10   1    -0.51  -0.01   0.01    -0.21  -0.00   0.06     0.11   0.00  -0.08 
    11   6    -0.00  -0.00   0.00    -0.11  -0.01   0.03     0.09  -0.00  -0.06 
    12   6    -0.02  -0.08  -0.05     0.05   0.01   0.08    -0.06  -0.06   0.06 
    13   1     0.18  -0.01  -0.30     0.14   0.00  -0.35     0.15  -0.01  -0.44 
    14   1    -0.01  -0.00   0.03    -0.16   0.17  -0.16     0.11  -0.07   0.02 
    15   1    -0.03  -0.03   0.08    -0.07   0.02  -0.01     0.11  -0.02   0.01 
    16   1    -0.06   0.03   0.00     0.08   0.12   0.25    -0.08   0.01  -0.07 
    17   1     0.33   0.32  -0.13    -0.41  -0.09   0.04    -0.12   0.09  -0.01 
    18   1    -0.43  -0.18   0.29     0.06   0.08  -0.31     0.01   0.00  -0.20 
                     31                     32                     33 
                      A                      A                      A 
 Frequencies --      0.0000                 0.0000                 0.0000 
 Red. masses --      1.5745                 3.9542                 1.1216 
 Frc consts  --      0.1000                 0.1000                 0.1000
 IR Inten    --      1.0000                 1.0000                 1.0000
  Atom  AN      X      Y      Z        X      Y      Z        X      Y      Z 
     1   6     0.00  -0.00  -0.03     0.12   0.01  -0.15     0.01   0.00  -0.03 
     2   6    -0.07  -0.00  -0.04     0.09   0.00   0.15     0.02   0.00   0.02 
     3   6     0.13   0.01  -0.05    -0.23  -0.02  -0.02    -0.02  -0.00   0.02 
     4   1    -0.25   0.01   0.38    -0.02  -0.02   0.09    -0.04  -0.00   0.05 
     5   6     0.01   0.00  -0.04    -0.19  -0.00  -0.04    -0.04  -0.00  -0.00 
     6   1     0.17   0.00   0.38    -0.11  -0.00  -0.22     0.00  -0.00  -0.01 
     7   6    -0.06   0.00   0.09     0.06   0.01   0.27     0.02   0.02   0.04 
     8   8    -0.03  -0.02   0.02     0.01   0.01   0.02     0.00   0.01  -0.01 
     9   6    -0.06   0.00   0.07     0.06  -0.01  -0.13     0.01  -0.00  -0.02 
    10   1     0.29  -0.00  -0.04     0.46   0.00  -0.05     0.08   0.00  -0.00 
    11   6     0.02   0.00  -0.05     0.04  -0.01  -0.10    -0.04   0.03   0.04 
    12   6     0.00   0.02   0.00    -0.01  -0.01  -0.03    -0.00   0.01   0.01 
    13   1     0.31  -0.01  -0.58     0.06   0.01  -0.15     0.03   0.01  -0.05 
    14   1     0.03  -0.10   0.10    -0.04  -0.09   0.24     0.05  -0.17   0.15 
    15   1     0.11  -0.01   0.07     0.16  -0.10   0.37     0.16   0.22  -0.48 
    16   1    -0.03   0.04  -0.06    -0.28   0.28   0.09     0.19  -0.66  -0.35 
    17   1    -0.01  -0.03   0.02     0.06   0.06  -0.04     0.07  -0.00   0.02 
    18   1     0.07   0.03  -0.02     0.04  -0.02   0.08    -0.14  -0.01  -0.03 
                     34                     35                     36 
                      A                      A                      A 
 Frequencies --      0.0000                 0.0000                 0.0000 
 Red. masses --      1.1548                 1.1366                 2.3834 
 Frc consts  --      0.1000                 0.1000                 0.1000
 IR Inten    --      1.0000                 1.0000                 1.0000
  Atom  AN      X      Y      Z        X      Y      Z        X      Y      Z 
     1   6    -0.03  -0.00   0.02     0.02   0.00  -0.03    -0.09   0.00  -0.03 
     2   6     0.00  -0.00   0.02    -0.02  -0.00   0.00     0.02   0.00   0.16 
     3   6     0.02  -0.00  -0.03     0.00  -0.00   0.01     0.09   0.00  -0.11 
     4   1     0.03   0.00  -0.08    -0.05  -0.00   0.09    -0.05   0.00  -0.14 
     5   6     0.04   0.00  -0.01    -0.01   0.00   0.01     0.17   0.00  -0.07 
     6   1    -0.07  -0.00  -0.11     0.02   0.00   0.08    -0.34  -0.01  -0.44 
     7   6     0.02   0.01   0.01    -0.03   0.00  -0.02    -0.00   0.00   0.15 
     8   8    -0.00  -0.00   0.00     0.00  -0.01   0.02    -0.02  -0.01   0.03 
     9   6    -0.02  -0.00  -0.01     0.02   0.00  -0.01    -0.09  -0.00  -0.03 
    10   1    -0.15  -0.00  -0.01    -0.00   0.00   0.02    -0.54  -0.01  -0.08 
    11   6    -0.08   0.02   0.00    -0.02   0.00   0.01     0.04   0.00  -0.04 
    12   6     0.01   0.01  -0.01    -0.04  -0.05   0.05    -0.00  -0.01   0.02 
    13   1    -0.03  -0.00   0.00    -0.04   0.00   0.10    -0.09   0.00  -0.08 
    14   1     0.38  -0.50  -0.15     0.11  -0.10  -0.10    -0.17   0.14   0.18 
    15   1     0.63   0.16   0.21     0.14   0.04   0.04    -0.19  -0.05  -0.12 
    16   1    -0.11   0.12   0.04     0.05   0.05   0.01    -0.03  -0.16  -0.01 
    17   1    -0.05  -0.12   0.03     0.19   0.65  -0.16     0.04   0.16  -0.03 
    18   1    -0.02  -0.01   0.11     0.28   0.08  -0.58     0.06   0.03  -0.18 
                     37                     38                     39 
                      A                      A                      A 
 Frequencies --      0.0000                 0.0000                 0.0000 
 Red. masses --      2.7708                 1.2724                 3.7578 
 Frc consts  --      0.1000                 0.1000                 0.1000
 IR Inten    --      1.0000                 1.0000                 1.0000
  Atom  AN      X      Y      Z        X      Y      Z        X      Y      Z 
     1   6     0.09  -0.00  -0.17     0.02   0.00   0.04     0.08   0.00   0.09 
     2   6    -0.09  -0.00   0.03    -0.05  -0.00  -0.08    -0.17  -0.00  -0.21 
     3   6     0.08   0.01   0.16    -0.04  -0.01  -0.03    -0.19  -0.01  -0.06 
     4   1    -0.28  -0.00   0.44     0.05   0.00  -0.00     0.13  -0.01   0.06 
     5   6     0.08   0.00   0.07     0.04   0.00   0.03     0.20   0.00   0.08 
     6   1    -0.03   0.00   0.19     0.06   0.00   0.12     0.11   0.00   0.30 
     7   6    -0.18   0.00   0.04     0.02   0.02   0.01     0.14  -0.00   0.19 
     8   8    -0.02  -0.00  -0.05     0.00   0.00   0.01     0.02   0.01   0.00 
     9   6     0.06  -0.00  -0.16    -0.00   0.00  -0.02    -0.06  -0.00  -0.11 
    10   1    -0.34  -0.00   0.08    -0.02   0.00   0.04    -0.24   0.00   0.10 
    11   6     0.04   0.00  -0.02     0.02   0.03  -0.05    -0.02  -0.02   0.02 
    12   6     0.02   0.02  -0.01     0.05  -0.01   0.02    -0.05  -0.00  -0.02 
    13   1    -0.30   0.01   0.45    -0.03   0.00   0.04    -0.15   0.00   0.02 
    14   1     0.08  -0.03  -0.04    -0.02  -0.08   0.18    -0.07   0.09  -0.01 
    15   1     0.05   0.00  -0.01    -0.01   0.03  -0.09    -0.02  -0.03   0.04 
    16   1    -0.07   0.00   0.02    -0.62  -0.42   0.55     0.47   0.25  -0.47 
    17   1    -0.09  -0.22   0.05    -0.08   0.08  -0.03     0.09   0.01   0.00 
    18   1    -0.10  -0.02   0.19    -0.10  -0.00  -0.11     0.08  -0.00   0.03 
                     40                     41                     42 
                      A                      A                      A 
 Frequencies --      0.0000                 0.0000                 0.0000 
 Red. masses --      6.8254                 1.0531                 1.0561 
 Frc consts  --      0.1000                 0.1000                 0.1000
 IR Inten    --      1.0000                 1.0000                 1.0000
  Atom  AN      X      Y      Z        X      Y      Z        X      Y      Z 
     1   6    -0.21   0.00   0.28     0.00   0.00  -0.00    -0.00   0.00  -0.00 
     2   6     0.07  -0.00  -0.15     0.00   0.00   0.00     0.00   0.00   0.00 
     3   6     0.27   0.00  -0.16     0.00  -0.00   0.00     0.00  -0.00   0.00 
     4   1     0.16   0.01  -0.35    -0.00  -0.00   0.00     0.00  -0.00   0.00 
     5   6    -0.23   0.00   0.11    -0.00  -0.00  -0.00    -0.00   0.00   0.00 
     6   1     0.18   0.00  -0.00    -0.00  -0.00   0.00     0.00  -0.00  -0.00 
     7   6    -0.16   0.00   0.23    -0.00   0.00  -0.00     0.00   0.00  -0.00 
     8   8    -0.01  -0.00   0.00    -0.00   0.00  -0.00    -0.00   0.00  -0.00 
     9   6     0.21  -0.00  -0.30    -0.00   0.00  -0.00     0.00   0.00  -0.00 
    10   1     0.23   0.00   0.12    -0.00  -0.00  -0.00    -0.00  -0.00   0.00 
    11   6     0.03  -0.00  -0.02    -0.00   0.00   0.00    -0.05   0.04   0.00 
    12   6    -0.02  -0.00   0.01    -0.00   0.06  -0.02     0.00  -0.00   0.00 
    13   1    -0.18   0.01   0.38     0.00   0.00   0.00    -0.01  -0.00  -0.00 
    14   1    -0.01   0.02   0.04     0.03   0.02   0.01     0.41   0.31   0.20 
    15   1    -0.00  -0.01  -0.03     0.01  -0.03  -0.01     0.23  -0.77  -0.22 
    16   1     0.10   0.04  -0.16    -0.01   0.01  -0.00    -0.01   0.01   0.00 
    17   1     0.01   0.00   0.02    -0.08   0.15   0.42     0.00  -0.01  -0.02 
    18   1     0.06   0.01  -0.03     0.09  -0.87  -0.14    -0.00   0.05   0.01 
                     43                     44                     45 
                      A                      A                      A 
 Frequencies --      0.0000                 0.0000                 0.0000 
 Red. masses --      1.1072                 1.0875                 1.0895 
 Frc consts  --      0.1000                 0.1000                 0.1000
 IR Inten    --      1.0000                 1.0000                 1.0000
  Atom  AN      X      Y      Z        X      Y      Z        X      Y      Z 
     1   6     0.00  -0.00  -0.00    -0.01   0.00  -0.00     0.02  -0.00   0.01 
     2   6    -0.00   0.00   0.00     0.02   0.00  -0.01    -0.06   0.00   0.03 
     3   6     0.00   0.00  -0.00     0.00   0.00   0.00    -0.00  -0.00   0.00 
     4   1    -0.00  -0.00  -0.00     0.08  -0.00   0.05    -0.29   0.00  -0.17 
     5   6    -0.00   0.00  -0.00     0.00   0.00   0.04     0.00  -0.00  -0.03 
     6   1     0.00  -0.00  -0.00    -0.21   0.00   0.12     0.66  -0.00  -0.38 
     7   6     0.00  -0.00  -0.00    -0.00   0.00   0.00    -0.00   0.00   0.00 
     8   8     0.00   0.00   0.00     0.00  -0.00  -0.00    -0.00   0.00  -0.00 
     9   6     0.00   0.00   0.00    -0.06  -0.00  -0.04    -0.03  -0.00  -0.02 
    10   1    -0.00  -0.00   0.01    -0.00  -0.01  -0.47    -0.00   0.00   0.33 
    11   6    -0.04  -0.08  -0.04    -0.00  -0.00  -0.00    -0.00  -0.00  -0.00 
    12   6     0.00   0.00   0.00    -0.00  -0.00   0.00     0.00   0.00   0.00 
    13   1    -0.02  -0.00  -0.01     0.72   0.00   0.42     0.38   0.00   0.22 
    14   1     0.63   0.45   0.30     0.02   0.01   0.01     0.01   0.00   0.00 
    15   1    -0.16   0.50   0.13    -0.00   0.01   0.00     0.00   0.00  -0.00 
    16   1    -0.00  -0.01   0.00     0.00   0.00  -0.00     0.00   0.00  -0.00 
    17   1     0.00  -0.00  -0.01     0.00  -0.00  -0.00     0.00  -0.00  -0.00 
    18   1    -0.00   0.00   0.00    -0.00   0.00   0.00    -0.00  -0.00  -0.00 
                     46                     47                     48 
                      A                      A                      A 
 Frequencies --      0.0000                 0.0000                 0.0000 
 Red. masses --      1.0943                 1.1115                 1.0981 
 Frc consts  --      0.1000                 0.1000                 0.1000
 IR Inten    --      1.0000                 1.0000                 1.0000
  Atom  AN      X      Y      Z        X      Y      Z        X      Y      Z 
     1   6     0.05  -0.00   0.03    -0.00   0.00  -0.00     0.05  -0.00   0.03 
     2   6    -0.02  -0.00   0.01     0.00   0.00  -0.00     0.04   0.00  -0.03 
     3   6    -0.00  -0.00   0.00     0.00   0.00  -0.00    -0.00  -0.00   0.00 
     4   1    -0.51   0.00  -0.31     0.04  -0.00   0.02    -0.61   0.01  -0.37 
     5   6    -0.00   0.00   0.06    -0.00  -0.00  -0.00    -0.00  -0.00  -0.04 
     6   1     0.18  -0.00  -0.10    -0.02   0.00   0.01    -0.48   0.00   0.28 
     7   6     0.00   0.00  -0.00    -0.00   0.00   0.00    -0.00   0.00   0.00 
     8   8     0.00   0.00  -0.00     0.00  -0.00   0.00     0.00   0.00  -0.00 
     9   6     0.02   0.00   0.01    -0.00  -0.00  -0.00    -0.01  -0.00  -0.00 
    10   1    -0.00  -0.01  -0.71     0.00   0.00   0.05     0.00   0.01   0.39 
    11   6     0.00   0.00   0.00    -0.00   0.00   0.00    -0.00  -0.00  -0.00 
    12   6    -0.00   0.00   0.01    -0.02   0.06   0.08     0.00  -0.00  -0.00 
    13   1    -0.24  -0.00  -0.14     0.02   0.00   0.01     0.12   0.00   0.06 
    14   1    -0.00  -0.00  -0.00    -0.00  -0.00  -0.00     0.00   0.00   0.00 
    15   1     0.00  -0.00   0.00     0.00  -0.01  -0.00     0.00  -0.00  -0.00 
    16   1    -0.00   0.00   0.00    -0.00   0.00   0.00     0.00   0.00  -0.00 
    17   1     0.01  -0.02  -0.06     0.12  -0.28  -0.84     0.00   0.00   0.00 
    18   1     0.00  -0.03  -0.00     0.06  -0.42  -0.05    -0.00   0.00   0.00 
