 Entering Gaussian System, 
                         Standard orientation:
 ---------------------------------------------------------------------
 Center     Atomic      Atomic             Coordinates (Angstroms)
 Number     Number       Type             X           Y           Z
 ---------------------------------------------------------------------
      1          6           0        0.000000    0.000000    0.000000 
      2          6           0        0.000000    0.000000    1.193689 
      3          1           0        0.000000    0.000000    2.256494 
      4          1           0       -0.000000    0.000000   -1.062805 
 ---------------------------------------------------------------------

    99 basis functions,   99 primitive gaussians,   9 cartesian basis functions
    99 alpha electrons       99 beta electrons

 **********************************************************************

 Harmonic frequencies (cm**-1), IR intensities (KM/Mole), Raman scattering
 activities (A**4/AMU), depolarization ratios for plane and unpolarized
 incident light, reduced masses (AMU), force constants (mDyne/A),
 and normal coordinates: 
                      1                      2                      3 
                      A                      A                      A 
 Frequencies --    707.7209               707.7209               790.1960 
 Red. masses --      0.0000                 0.0000                 0.0000 
 Frc consts  --      0.1000                 0.1000                 0.1000
 IR Inten    --      1.0000                 1.0000                 1.0000
  Atom  AN      X      Y      Z        X      Y      Z        X      Y      Z 
     1   6     0.00   0.16   0.00     0.16   0.00   0.00     0.06   0.00   0.00 
     2   6     0.00  -0.16   0.00    -0.16   0.00   0.00     0.06   0.00   0.00 
     3   1     0.00   0.69   0.00     0.69   0.00   0.00    -0.70   0.00   0.00 
     4   1     0.00  -0.69   0.00    -0.69   0.00   0.00    -0.70   0.00   0.00 
                      4                      5                      6 
                      A                      A                      A 
 Frequencies --    790.1960              2103.8750              3422.8546 
 Red. masses --      0.0000                 0.0000                 0.0000 
 Frc consts  --      0.1000                 0.1000                 0.1000
 IR Inten    --      1.0000                 1.0000                 1.0000
  Atom  AN      X      Y      Z        X      Y      Z        X      Y      Z 
     1   6     0.00   0.06   0.00     0.00   0.00   0.35     0.00   0.00   0.06 
     2   6     0.00   0.06   0.00     0.00   0.00  -0.35     0.00   0.00   0.06 
     3   1     0.00  -0.70   0.00     0.00   0.00  -0.61     0.00   0.00  -0.70 
     4   1     0.00  -0.70   0.00     0.00   0.00   0.61     0.00   0.00  -0.70 
