 Entering Gaussian System, 
                         Standard orientation:
 ---------------------------------------------------------------------
 Center     Atomic      Atomic             Coordinates (Angstroms)
 Number     Number       Type             X           Y           Z
 ---------------------------------------------------------------------
      1          6           0        0.000000   -0.000000    0.000000 
      2          6           0        0.000000   -0.000000    1.391026 
      3          6           0        1.210189   -0.000000   -0.681656 
      4          1           0       -0.931833   -0.024398   -0.551498 
      5          6           0        1.199578   -0.010132    2.086324 
      6          1           0       -0.943546   -0.002321    1.924605 
      7          6           0        2.435301   -0.020847   -0.005352 
      8          8           0        1.285277   -0.014048   -2.051917 
      9          6           0        2.401778   -0.025052    1.384441 
     10          1           0        1.204455   -0.011844    3.169995 
     11          6           0        3.726601   -0.036198   -0.774280 
     12          6           0        0.252237    0.464922   -2.783364 
     13          1           0        3.340991   -0.036935    1.928261 
     14          1           0        3.804758    0.835831   -1.428761 
     15          1           0        4.579799   -0.036595   -0.093921 
     16          1           0        3.792593   -0.920543   -1.413511 
     17          1           0        0.404615    0.352775   -3.846949 
     18          1           0       -0.328761    1.283434   -2.370284 
 ---------------------------------------------------------------------

    99 basis functions,   99 primitive gaussians,   9 cartesian basis functions
    99 alpha electrons       99 beta electrons

 **********************************************************************

 Harmonic frequencies (cm**-1), IR intensities (KM/Mole), Raman scattering
 activities (A**4/AMU), depolarization ratios for plane and unpolarized
 incident light, reduced masses (AMU), force constants (mDyne/A),
 and normal coordinates: 
                      1                      2                      3 
                      A                      A                      A 
 Frequencies --     -0.0000                -0.0000                -0.0000 
 Red. masses --      4.0031                 2.7928                 5.8225 
 Frc consts  --      0.1000                 0.1000                 0.1000
 IR Inten    --      1.0000                 1.0000                 1.0000
  Atom  AN      X      Y      Z        X      Y      Z        X      Y      Z 
     1   6     0.10  -0.04   0.02     0.00  -0.07   0.00    -0.01  -0.31   0.00 
     2   6     0.07   0.02   0.02    -0.01  -0.09   0.00    -0.01  -0.38   0.00 
     3   6     0.11  -0.05   0.04     0.01   0.05   0.01    -0.00  -0.18   0.01 
     4   1     0.11  -0.09   0.01     0.01  -0.16  -0.00    -0.00  -0.36   0.00 
     5   6     0.06   0.08   0.04    -0.01   0.03   0.01    -0.01  -0.31   0.01 
     6   1     0.07   0.02   0.01    -0.01  -0.18  -0.00    -0.01  -0.48   0.00 
     7   6     0.10   0.01   0.07     0.00   0.16   0.01    -0.00  -0.12   0.01 
     8   8     0.13  -0.11   0.05     0.01   0.07   0.01    -0.00  -0.11   0.01 
     9   6     0.08   0.07   0.07    -0.00   0.15   0.01    -0.01  -0.18   0.01 
    10   1     0.04   0.13   0.04    -0.01   0.02   0.01    -0.01  -0.36   0.01 
    11   6     0.11   0.00   0.09     0.01   0.30   0.02    -0.00   0.03   0.01 
    12   6     0.30   0.20   0.01    -0.03  -0.04   0.01     0.03  -0.01   0.03 
    13   1     0.07   0.12   0.08    -0.01   0.24   0.02    -0.01  -0.13   0.01 
    14   1     0.17   0.06   0.17     0.10   0.51   0.31    -0.09   0.04   0.02 
    15   1     0.10  -0.11   0.10     0.00  -0.01   0.03    -0.00   0.10   0.01 
    16   1     0.07   0.06   0.01    -0.07   0.50  -0.27     0.09   0.04  -0.01 
    17   1     0.45   0.45   0.01    -0.08  -0.14   0.01     0.06   0.10   0.02 
    18   1     0.34   0.16   0.13    -0.04  -0.01  -0.05     0.03  -0.05   0.10 
                      4                      5                      6 
                      A                      A                      A 
 Frequencies --     -0.0000                 0.0000                 0.0000 
 Red. masses --      6.5355                 3.1363                 2.4249 
 Frc consts  --      0.1000                 0.1000                 0.1000
 IR Inten    --      1.0000                 1.0000                 1.0000
  Atom  AN      X      Y      Z        X      Y      Z        X      Y      Z 
     1   6     0.07   0.16  -0.09     0.09   0.01   0.08     0.01   0.02   0.13 
     2   6     0.01  -0.05  -0.09     0.10   0.01   0.08     0.08  -0.01   0.13 
     3   6     0.10   0.19  -0.03     0.09  -0.00   0.08    -0.02   0.03   0.07 
     4   1     0.10   0.31  -0.13     0.09   0.03   0.09    -0.01   0.03   0.17 
     5   6    -0.02  -0.24  -0.03     0.10  -0.01   0.08     0.11  -0.02   0.07 
     6   1    -0.01  -0.07  -0.13     0.10   0.02   0.09     0.10  -0.02   0.17 
     7   6     0.07  -0.00   0.02     0.09  -0.02   0.07     0.01   0.02   0.01 
     8   8     0.17   0.39  -0.03     0.08   0.00   0.08    -0.08   0.06   0.06 
     9   6     0.01  -0.22   0.02     0.10  -0.03   0.07     0.08  -0.00   0.01 
    10   1    -0.07  -0.41  -0.03     0.11  -0.02   0.08     0.16  -0.04   0.07 
    11   6     0.11   0.03   0.08     0.08  -0.04   0.06    -0.02   0.04  -0.05 
    12   6     0.04   0.15  -0.01    -0.05  -0.26   0.08    -0.11   0.10   0.12 
    13   1    -0.02  -0.37   0.06     0.10  -0.05   0.07     0.10  -0.01  -0.03 
    14   1     0.14   0.06   0.12     0.08  -0.06   0.04    -0.13  -0.04  -0.16 
    15   1     0.08  -0.01   0.11     0.09  -0.03   0.06     0.01   0.20  -0.09 
    16   1     0.13   0.06   0.04     0.08  -0.06   0.08     0.02  -0.04   0.06 
    17   1    -0.00   0.09  -0.01    -0.28  -0.76   0.10     0.06   0.57   0.10 
    18   1    -0.08   0.09  -0.04     0.10  -0.02  -0.17    -0.37  -0.22   0.38 
                      7                      8                      9 
                      A                      A                      A 
 Frequencies --      0.0000                 0.0000                 0.0000 
 Red. masses --      2.5092                 1.5846                 1.4165 
 Frc consts  --      0.1000                 0.1000                 0.1000
 IR Inten    --      1.0000                 1.0000                 1.0000
  Atom  AN      X      Y      Z        X      Y      Z        X      Y      Z 
     1   6    -0.06   0.00   0.03    -0.04   0.03   0.05     0.02   0.00  -0.04 
     2   6    -0.11  -0.00   0.03    -0.05   0.02   0.05    -0.01   0.01  -0.04 
     3   6    -0.04   0.02   0.07    -0.04  -0.01   0.05     0.03  -0.00  -0.01 
     4   1    -0.04  -0.01  -0.01    -0.04   0.05   0.04     0.03   0.01  -0.05 
     5   6    -0.14   0.01   0.07    -0.05  -0.02   0.05    -0.02   0.01  -0.01 
     6   1    -0.13  -0.01  -0.01    -0.05   0.04   0.04    -0.02   0.02  -0.05 
     7   6    -0.06   0.03   0.12    -0.04  -0.04   0.06     0.02  -0.01   0.01 
     8   8     0.02   0.02   0.07    -0.03  -0.00   0.05     0.05  -0.01  -0.01 
     9   6    -0.11   0.02   0.12    -0.05  -0.05   0.06    -0.01   0.00   0.01 
    10   1    -0.18   0.01   0.07    -0.06  -0.02   0.05    -0.04   0.02  -0.01 
    11   6    -0.03   0.04   0.17    -0.04  -0.07   0.06     0.03  -0.02   0.03 
    12   6     0.03  -0.01   0.04    -0.02   0.03   0.05     0.00  -0.16  -0.04 
    13   1    -0.13   0.03   0.15    -0.05  -0.08   0.06    -0.02   0.00   0.02 
    14   1    -0.22  -0.19  -0.17     0.22   0.19   0.45     0.08   0.02   0.09 
    15   1    -0.05   0.51   0.20    -0.05  -0.62   0.07     0.02  -0.10   0.05 
    16   1     0.20  -0.19   0.51    -0.29   0.19  -0.33     0.00   0.02  -0.03 
    17   1     0.07  -0.01   0.04    -0.01   0.04   0.05     0.31   0.41  -0.05 
    18   1    -0.01  -0.02   0.01    -0.00   0.04   0.05    -0.48  -0.62   0.21 
                     10                     11                     12 
                      A                      A                      A 
 Frequencies --    174.6058               224.3681               289.0249 
 Red. masses --      3.3810                 3.2209                 4.0388 
 Frc consts  --      0.1000                 0.1000                 0.1000
 IR Inten    --      1.0000                 1.0000                 1.0000
  Atom  AN      X      Y      Z        X      Y      Z        X      Y      Z 
     1   6    -0.03   0.17   0.04     0.05  -0.02  -0.07    -0.02  -0.18  -0.01 
     2   6     0.01   0.13   0.05    -0.01   0.12  -0.08    -0.01   0.09   0.00 
     3   6    -0.04  -0.01   0.02     0.06  -0.11  -0.05    -0.01  -0.14   0.03 
     4   1    -0.05   0.31   0.07     0.07  -0.01  -0.10    -0.02  -0.21  -0.01 
     5   6     0.02  -0.13   0.02    -0.03   0.05  -0.05    -0.02   0.18   0.01 
     6   1     0.02   0.27   0.07    -0.03   0.27  -0.11    -0.01   0.25   0.00 
     7   6    -0.03  -0.03   0.00     0.05  -0.10  -0.02    -0.02  -0.20   0.03 
     8   8    -0.01  -0.15   0.03    -0.06  -0.07  -0.06     0.14   0.20   0.05 
     9   6     0.01  -0.18  -0.00    -0.02  -0.10  -0.01     0.00  -0.11   0.03 
    10   1     0.04  -0.23   0.02    -0.06   0.13  -0.05    -0.03   0.44   0.01 
    11   6    -0.06   0.22  -0.05     0.14   0.11   0.12    -0.12   0.06  -0.14 
    12   6     0.12  -0.06  -0.09    -0.17   0.06   0.17     0.06  -0.01   0.03 
    13   1     0.02  -0.27  -0.02    -0.04  -0.11   0.02    -0.00  -0.10   0.04 
    14   1    -0.24   0.30   0.03     0.10   0.19   0.22    -0.42   0.15  -0.06 
    15   1    -0.03   0.31  -0.09     0.05   0.19   0.24    -0.01   0.15  -0.29 
    16   1     0.07   0.30  -0.15     0.37   0.18   0.05    -0.07   0.15  -0.27 
    17   1     0.26  -0.03  -0.07    -0.39   0.12   0.13     0.05  -0.09   0.04 
    18   1     0.10  -0.05  -0.14     0.01   0.11   0.33    -0.06  -0.06  -0.02 
                     13                     14                     15 
                      A                      A                      A 
 Frequencies --    336.2733               458.8709               507.7571 
 Red. masses --      3.2479                 2.9600                 5.0212 
 Frc consts  --      0.1000                 0.1000                 0.1000
 IR Inten    --      1.0000                 1.0000                 1.0000
  Atom  AN      X      Y      Z        X      Y      Z        X      Y      Z 
     1   6    -0.03  -0.09   0.08    -0.01   0.20   0.00     0.08  -0.03  -0.06 
     2   6     0.06   0.00   0.10     0.01  -0.13   0.01     0.19   0.06  -0.03 
     3   6    -0.08  -0.03  -0.04    -0.02  -0.15  -0.02     0.00  -0.06  -0.16 
     4   1    -0.08  -0.08   0.16    -0.04   0.56   0.04    -0.03  -0.01   0.12 
     5   6     0.09   0.07   0.05     0.01  -0.03   0.00     0.09  -0.06   0.15 
     6   1     0.09   0.05   0.15     0.02  -0.20   0.01     0.16   0.15  -0.09 
     7   6    -0.06  -0.08  -0.05    -0.03  -0.24  -0.01    -0.17   0.08   0.10 
     8   8    -0.10   0.10  -0.06     0.04   0.04  -0.02     0.13  -0.03  -0.23 
     9   6     0.02  -0.05  -0.05     0.00   0.19  -0.01     0.02   0.02   0.11 
    10   1     0.16   0.19   0.05     0.02   0.01   0.00    -0.02  -0.14   0.15 
    11   6     0.08   0.01   0.19    -0.02   0.00   0.01    -0.27   0.00   0.13 
    12   6    -0.00   0.02  -0.25     0.00   0.00   0.02    -0.04   0.03  -0.00 
    13   1     0.06  -0.05  -0.13     0.02   0.58  -0.03     0.12  -0.00  -0.05 
    14   1     0.18   0.05   0.25    -0.18   0.11   0.13    -0.24  -0.05   0.08 
    15   1    -0.08   0.05   0.39    -0.03   0.10   0.04    -0.23  -0.05   0.08 
    16   1     0.31   0.04   0.17     0.19   0.10  -0.09    -0.39  -0.03   0.17 
    17   1     0.19  -0.04  -0.21    -0.04  -0.00   0.01    -0.39   0.06  -0.05 
    18   1    -0.16  -0.02  -0.38    -0.00  -0.01   0.02     0.03  -0.05   0.24 
                     16                     17                     18 
                      A                      A                      A 
 Frequencies --    515.4249               565.4973               601.2510 
 Red. masses --      4.0844                 3.5806                 3.7983 
 Frc consts  --      0.1000                 0.1000                 0.1000
 IR Inten    --      1.0000                 1.0000                 1.0000
  Atom  AN      X      Y      Z        X      Y      Z        X      Y      Z 
     1   6    -0.19  -0.03  -0.00    -0.03   0.11  -0.06     0.07   0.04   0.15 
     2   6     0.01   0.06   0.01     0.06  -0.20  -0.07    -0.10  -0.05   0.20 
     3   6    -0.15  -0.04   0.01    -0.02   0.24  -0.01     0.02   0.05  -0.08 
     4   1    -0.24  -0.02   0.08    -0.03  -0.09  -0.04     0.03  -0.02   0.22 
     5   6     0.10  -0.05  -0.15     0.06   0.23  -0.04    -0.08   0.06   0.14 
     6   1     0.10   0.14   0.18     0.08  -0.59  -0.03    -0.16  -0.16   0.10 
     7   6    -0.12   0.08  -0.13    -0.06  -0.09   0.02    -0.01   0.01  -0.12 
     8   8     0.16   0.03   0.08     0.01  -0.08   0.01     0.13  -0.05  -0.13 
     9   6     0.03   0.01  -0.20     0.05  -0.14  -0.00    -0.19  -0.04  -0.10 
    10   1     0.20  -0.12  -0.15     0.01   0.39  -0.04     0.14   0.09   0.14 
    11   6    -0.02  -0.00   0.09    -0.08   0.01   0.06     0.08   0.00  -0.08 
    12   6     0.11  -0.05   0.19     0.02  -0.02   0.06     0.08   0.05   0.02 
    13   1     0.08  -0.01  -0.28     0.07  -0.34  -0.05    -0.18  -0.12  -0.11 
    14   1     0.27  -0.04   0.08    -0.18   0.09   0.15     0.11   0.01  -0.07 
    15   1    -0.23  -0.05   0.36    -0.11   0.10   0.10     0.04   0.01  -0.03 
    16   1     0.11  -0.05   0.18     0.07   0.08  -0.01     0.13   0.01  -0.08 
    17   1    -0.07  -0.07   0.17    -0.02   0.04   0.04    -0.49  -0.23  -0.01 
    18   1     0.12  -0.08   0.28     0.10   0.01   0.11    -0.18  -0.30   0.30 
                     19                     20                     21 
                      A                      A                      A 
 Frequencies --    631.0127               739.8873               768.9999 
 Red. masses --      1.4641                 2.4384                 2.5384 
 Frc consts  --      0.1000                 0.1000                 0.1000
 IR Inten    --      1.0000                 1.0000                 1.0000
  Atom  AN      X      Y      Z        X      Y      Z        X      Y      Z 
     1   6     0.02  -0.00   0.03     0.06  -0.06   0.01     0.21  -0.04   0.02 
     2   6    -0.01  -0.01   0.05     0.01   0.15   0.00     0.03  -0.05  -0.02 
     3   6     0.01   0.01  -0.03     0.03   0.19  -0.01     0.08   0.04  -0.01 
     4   1     0.02   0.02   0.03     0.09  -0.63  -0.03     0.25   0.27  -0.06 
     5   6    -0.01   0.01   0.04    -0.00  -0.08   0.00    -0.01  -0.05  -0.01 
     6   1    -0.03  -0.01   0.02    -0.01  -0.22  -0.04    -0.05   0.44  -0.17 
     7   6    -0.01   0.01  -0.03    -0.02  -0.18  -0.03    -0.03   0.02  -0.06 
     8   8     0.05   0.03  -0.03    -0.01  -0.01   0.02    -0.07   0.00   0.11 
     9   6    -0.05  -0.01  -0.03    -0.03   0.12  -0.04    -0.11  -0.03  -0.13 
    10   1     0.04   0.02   0.04     0.04  -0.48  -0.00     0.11   0.48  -0.02 
    11   6     0.01   0.00  -0.01    -0.04  -0.03   0.02    -0.12   0.01   0.06 
    12   6    -0.09  -0.12   0.03     0.01  -0.01   0.01     0.04  -0.00   0.04 
    13   1    -0.04  -0.03  -0.04    -0.02   0.09  -0.07    -0.08   0.30  -0.18 
    14   1     0.03  -0.00  -0.01    -0.24   0.09   0.16    -0.04  -0.02   0.03 
    15   1    -0.01  -0.00   0.01    -0.06   0.11   0.05    -0.17  -0.03   0.12 
    16   1     0.01  -0.00  -0.01     0.19   0.09  -0.12    -0.14  -0.02   0.10 
    17   1     0.41   0.52   0.01     0.03  -0.01   0.02     0.16  -0.11   0.07 
    18   1     0.56   0.44  -0.08     0.02  -0.00   0.02    -0.09  -0.03  -0.08 
                     22                     23                     24 
                      A                      A                      A 
 Frequencies --    782.8274               840.4770               881.9974 
 Red. masses --      1.9189                 4.6685                 1.3409 
 Frc consts  --      0.1000                 0.1000                 0.1000
 IR Inten    --      1.0000                 1.0000                 1.0000
  Atom  AN      X      Y      Z        X      Y      Z        X      Y      Z 
     1   6    -0.10  -0.07  -0.01     0.07   0.00   0.14    -0.00   0.11  -0.00 
     2   6    -0.02  -0.02   0.01    -0.25  -0.00   0.15    -0.00   0.04   0.00 
     3   6    -0.03   0.18   0.00     0.10  -0.01   0.07    -0.00  -0.06  -0.00 
     4   1    -0.13   0.12   0.03     0.21   0.02  -0.10     0.03  -0.66  -0.03 
     5   6     0.00  -0.11   0.00     0.02   0.01  -0.31     0.00  -0.05   0.00 
     6   1     0.02   0.54   0.09    -0.14  -0.02   0.34    -0.00  -0.30   0.01 
     7   6     0.01  -0.05   0.03     0.10   0.00   0.06     0.00   0.02   0.00 
     8   8     0.03  -0.04  -0.06     0.05  -0.02  -0.12     0.00   0.01   0.00 
     9   6     0.05  -0.01   0.06     0.14  -0.00  -0.04     0.00  -0.10  -0.00 
    10   1    -0.04   0.56   0.01     0.24  -0.02  -0.31     0.01   0.33   0.00 
    11   6     0.05  -0.01  -0.03    -0.15   0.00   0.14    -0.00   0.02   0.00 
    12   6    -0.01  -0.01  -0.01    -0.06   0.02  -0.07    -0.00   0.00  -0.01 
    13   1     0.04   0.46   0.08     0.03  -0.02   0.15     0.01   0.55  -0.00 
    14   1    -0.00   0.01  -0.01    -0.34  -0.01   0.10     0.09  -0.04  -0.07 
    15   1     0.07   0.01  -0.05    -0.02   0.00  -0.03     0.00  -0.07  -0.00 
    16   1     0.08   0.01  -0.05    -0.33   0.02   0.10    -0.10  -0.04   0.07 
    17   1    -0.12   0.07  -0.03    -0.17   0.11  -0.10     0.02   0.00  -0.00 
    18   1     0.07   0.01   0.08     0.02   0.03   0.02     0.00   0.01  -0.01 
                     25                     26                     27 
                      A                      A                      A 
 Frequencies --    964.0210              1005.8692              1013.2377 
 Red. masses --      1.3641                 1.2989                 1.5349 
 Frc consts  --      0.1000                 0.1000                 0.1000
 IR Inten    --      1.0000                 1.0000                 1.0000
  Atom  AN      X      Y      Z        X      Y      Z        X      Y      Z 
     1   6     0.00  -0.10   0.01    -0.00   0.04  -0.01     0.05   0.00   0.02 
     2   6     0.00   0.08  -0.01    -0.00  -0.10   0.00    -0.07  -0.00   0.00 
     3   6     0.00   0.04   0.00    -0.00   0.01  -0.00     0.02  -0.00   0.01 
     4   1    -0.03   0.52   0.04     0.02  -0.29  -0.03     0.11  -0.00  -0.09 
     5   6    -0.00   0.06  -0.01     0.00   0.10   0.01    -0.01   0.00   0.01 
     6   1     0.00  -0.43  -0.01     0.00   0.62   0.01    -0.12   0.02  -0.09 
     7   6    -0.00  -0.01  -0.00     0.00  -0.01   0.00    -0.04  -0.00  -0.03 
     8   8    -0.00  -0.01  -0.00     0.00   0.00   0.00     0.00  -0.00  -0.01 
     9   6    -0.00  -0.10   0.00    -0.00  -0.05  -0.00     0.10  -0.00   0.08 
    10   1    -0.01  -0.34  -0.01     0.00  -0.62   0.00    -0.12  -0.01   0.02 
    11   6     0.00   0.03  -0.00     0.00   0.01   0.00    -0.08   0.00  -0.12 
    12   6     0.00  -0.00   0.00    -0.00  -0.00  -0.00    -0.00   0.00  -0.00 
    13   1     0.00   0.59   0.01     0.01   0.34  -0.01     0.10  -0.00   0.09 
    14   1     0.10  -0.04  -0.08     0.01  -0.01  -0.02     0.45   0.07   0.03 
    15   1    -0.00  -0.07   0.00     0.01  -0.02  -0.01    -0.52   0.00   0.45 
    16   1    -0.10  -0.04   0.08    -0.03  -0.01   0.02     0.43  -0.08   0.05 
    17   1    -0.01   0.00   0.00    -0.00   0.00  -0.00    -0.00   0.00  -0.00 
    18   1    -0.00  -0.00   0.00     0.01  -0.00   0.01    -0.01   0.00  -0.01 
                     28                     29                     30 
                      A                      A                      A 
 Frequencies --   1069.2806              1078.5578              1133.8686 
 Red. masses --      1.5377                 2.0229                 2.2809 
 Frc consts  --      0.1000                 0.1000                 0.1000
 IR Inten    --      1.0000                 1.0000                 1.0000
  Atom  AN      X      Y      Z        X      Y      Z        X      Y      Z 
     1   6    -0.01   0.00  -0.01    -0.05  -0.01  -0.13     0.10   0.00   0.08 
     2   6    -0.01  -0.01   0.00    -0.15   0.01   0.05    -0.07  -0.00   0.00 
     3   6     0.00   0.03  -0.00     0.02  -0.00  -0.01    -0.08   0.00  -0.16 
     4   1     0.02  -0.04  -0.05     0.20   0.08  -0.57    -0.09  -0.04   0.42 
     5   6     0.00  -0.01   0.01     0.05   0.00   0.17    -0.06   0.00  -0.04 
     6   1    -0.02   0.04  -0.00    -0.25  -0.04  -0.10    -0.26   0.01  -0.33 
     7   6    -0.00  -0.14  -0.00     0.02   0.02  -0.02    -0.09  -0.00  -0.02 
     8   8    -0.00  -0.00  -0.00    -0.01  -0.00   0.01    -0.05   0.03   0.00 
     9   6     0.01   0.05  -0.00     0.10  -0.01  -0.05     0.16  -0.00   0.04 
    10   1     0.02   0.01   0.01     0.30   0.00   0.19    -0.43   0.00  -0.03 
    11   6     0.00   0.15   0.00    -0.00  -0.01   0.04     0.06  -0.00   0.04 
    12   6     0.00  -0.00   0.00     0.01   0.00   0.02     0.07  -0.03   0.07 
    13   1     0.02  -0.23  -0.03     0.32   0.02  -0.42     0.30  -0.00  -0.20 
    14   1     0.45  -0.19  -0.38    -0.15   0.00   0.04    -0.10  -0.05  -0.05 
    15   1     0.01  -0.33  -0.01     0.09   0.03  -0.08     0.26  -0.00  -0.21 
    16   1    -0.48  -0.17   0.38    -0.06   0.04  -0.03    -0.10   0.05  -0.05 
    17   1    -0.01   0.00  -0.00     0.04  -0.03   0.03     0.16  -0.09   0.09 
    18   1     0.01  -0.00   0.01    -0.04  -0.00  -0.04     0.07  -0.04   0.07 
                     31                     32                     33 
                      A                      A                      A 
 Frequencies --   1180.5898              1188.8018              1206.0974 
 Red. masses --      1.5740                 1.1462                 1.6659 
 Frc consts  --      0.1000                 0.1000                 0.1000
 IR Inten    --      1.0000                 1.0000                 1.0000
  Atom  AN      X      Y      Z        X      Y      Z        X      Y      Z 
     1   6     0.02   0.00   0.04    -0.03   0.00   0.03     0.03  -0.00  -0.04 
     2   6     0.04   0.00  -0.04    -0.03  -0.00  -0.07    -0.01   0.00   0.03 
     3   6    -0.03  -0.01   0.14     0.01  -0.00   0.03    -0.03  -0.01  -0.07 
     4   1     0.06   0.01  -0.01    -0.21  -0.03   0.35     0.14   0.02  -0.23 
     5   6    -0.04   0.00   0.03     0.05  -0.00   0.01     0.02  -0.00  -0.02 
     6   1    -0.06  -0.00  -0.22    -0.34   0.02  -0.61     0.05  -0.01   0.13 
     7   6     0.03   0.00  -0.01     0.02  -0.00  -0.00    -0.03   0.00   0.02 
     8   8     0.02   0.01   0.04     0.01  -0.00   0.01    -0.11   0.07   0.02 
     9   6     0.02  -0.00  -0.07    -0.00   0.00   0.01    -0.01   0.00   0.04 
    10   1    -0.42   0.01   0.03     0.54  -0.01   0.01     0.34  -0.00  -0.02 
    11   6    -0.00  -0.00   0.01    -0.01   0.00   0.00     0.01  -0.00  -0.01 
    12   6    -0.01  -0.02  -0.12    -0.01   0.00  -0.02     0.12  -0.08  -0.02 
    13   1     0.20  -0.00  -0.37    -0.09  -0.00   0.16    -0.17   0.00   0.32 
    14   1    -0.04  -0.00   0.01    -0.02   0.00   0.01     0.03   0.00  -0.01 
    15   1    -0.01   0.00   0.02    -0.02  -0.00   0.01     0.02   0.01  -0.02 
    16   1    -0.03   0.00   0.01    -0.02  -0.00   0.01     0.03   0.00  -0.02 
    17   1    -0.51   0.26  -0.22    -0.06   0.04  -0.04    -0.36   0.14  -0.11 
    18   1     0.27  -0.03   0.30     0.03   0.01   0.03     0.44  -0.13   0.49 
                     34                     35                     36 
                      A                      A                      A 
 Frequencies --   1237.4085              1315.9970              1325.8047 
 Red. masses --      2.9721                 1.5660                 4.8201 
 Frc consts  --      0.1000                 0.1000                 0.1000
 IR Inten    --      1.0000                 1.0000                 1.0000
  Atom  AN      X      Y      Z        X      Y      Z        X      Y      Z 
     1   6    -0.11   0.00  -0.04     0.01   0.00  -0.07     0.10  -0.00  -0.17 
     2   6    -0.00   0.00   0.02    -0.05  -0.00   0.00     0.04  -0.00   0.16 
     3   6     0.11  -0.00  -0.06     0.09  -0.00  -0.07    -0.19   0.01  -0.18 
     4   1    -0.41  -0.02   0.46    -0.29  -0.01   0.44    -0.07   0.03   0.10 
     5   6    -0.06   0.00   0.09    -0.03   0.00  -0.03    -0.13   0.00   0.03 
     6   1     0.05   0.00   0.13     0.13  -0.00   0.33    -0.07  -0.01  -0.02 
     7   6     0.28  -0.00  -0.12    -0.01  -0.00   0.12     0.09  -0.00   0.00 
     8   8    -0.09   0.04  -0.04     0.00  -0.00   0.07     0.15  -0.07   0.23 
     9   6     0.04  -0.00  -0.05    -0.04   0.00   0.01     0.14  -0.00  -0.11 
    10   1    -0.38   0.00   0.10     0.28  -0.00  -0.03     0.05   0.01   0.04 
    11   6    -0.12   0.00   0.04    -0.01  -0.00  -0.04    -0.02   0.00   0.01 
    12   6     0.08  -0.04   0.04    -0.03   0.01  -0.05    -0.16   0.07  -0.12 
    13   1    -0.05  -0.00   0.14     0.28  -0.00  -0.55    -0.31   0.01   0.69 
    14   1    -0.15   0.05   0.11     0.17   0.04   0.03    -0.05   0.00   0.01 
    15   1    -0.27   0.01   0.22    -0.01   0.00  -0.03    -0.07  -0.00   0.07 
    16   1    -0.15  -0.04   0.11     0.16  -0.04   0.03    -0.06  -0.00   0.01 
    17   1     0.08  -0.06   0.05    -0.07   0.02  -0.06    -0.18   0.08  -0.13 
    18   1     0.15  -0.06   0.16     0.07  -0.01   0.11    -0.08   0.07  -0.01 
                     37                     38                     39 
                      A                      A                      A 
 Frequencies --   1352.2870              1424.3036              1472.9507 
 Red. masses --      4.9088                 1.2730                 1.2987 
 Frc consts  --      0.1000                 0.1000                 0.1000
 IR Inten    --      1.0000                 1.0000                 1.0000
  Atom  AN      X      Y      Z        X      Y      Z        X      Y      Z 
     1   6     0.08  -0.00  -0.10    -0.01  -0.00  -0.00    -0.05  -0.00   0.02 
     2   6     0.14   0.00   0.13     0.01   0.00   0.01     0.02  -0.00   0.05 
     3   6    -0.21   0.01   0.14     0.00   0.00   0.01     0.03   0.00  -0.04 
     4   1     0.01  -0.01   0.03    -0.00   0.00  -0.02     0.05   0.02  -0.17 
     5   6    -0.19   0.00  -0.04    -0.01   0.00   0.01     0.07  -0.00  -0.02 
     6   1    -0.15  -0.01  -0.40    -0.03  -0.00  -0.05    -0.14  -0.00  -0.22 
     7   6     0.12  -0.00   0.28     0.03  -0.00  -0.00     0.01  -0.00   0.05 
     8   8    -0.07   0.03  -0.19    -0.00   0.00  -0.01     0.01   0.00   0.01 
     9   6     0.03  -0.00  -0.16     0.00  -0.00  -0.02    -0.04   0.00  -0.02 
    10   1     0.36  -0.00  -0.06    -0.04   0.00   0.00    -0.23   0.00  -0.03 
    11   6    -0.01   0.00  -0.08    -0.13   0.00   0.08    -0.01  -0.00  -0.03 
    12   6     0.09  -0.03   0.11     0.00  -0.00   0.00    -0.07   0.04  -0.06 
    13   1     0.07   0.00  -0.25    -0.04   0.00   0.05    -0.05   0.00  -0.01 
    14   1     0.14   0.15   0.16     0.48  -0.26  -0.22     0.08   0.15   0.20 
    15   1    -0.14  -0.00   0.11     0.29  -0.01  -0.43     0.07   0.02  -0.12 
    16   1     0.13  -0.15   0.17     0.49   0.25  -0.22     0.05  -0.15   0.19 
    17   1     0.24  -0.12   0.14    -0.00   0.00   0.00     0.41  -0.39   0.06 
    18   1    -0.04  -0.02  -0.09    -0.00   0.00  -0.01     0.19  -0.09   0.54 
                     40                     41                     42 
                      A                      A                      A 
 Frequencies --   1482.7444              1483.8078              1513.2358 
 Red. masses --      1.1997                 1.0674                 1.6283 
 Frc consts  --      0.1000                 0.1000                 0.1000
 IR Inten    --      1.0000                 1.0000                 1.0000
  Atom  AN      X      Y      Z        X      Y      Z        X      Y      Z 
     1   6    -0.03   0.00   0.01     0.01   0.00  -0.00     0.05  -0.00   0.05 
     2   6     0.00   0.00   0.04    -0.00  -0.00  -0.02    -0.02  -0.00  -0.12 
     3   6     0.03   0.00  -0.06    -0.01   0.00   0.02    -0.07   0.00   0.04 
     4   1     0.00  -0.01  -0.06    -0.00  -0.00   0.03     0.07   0.00   0.03 
     5   6     0.06  -0.00  -0.02    -0.02   0.00   0.01    -0.10   0.00   0.05 
     6   1    -0.10   0.00  -0.14     0.04   0.00   0.06     0.23  -0.00   0.29 
     7   6     0.01  -0.01   0.03    -0.00  -0.02  -0.01     0.01  -0.00  -0.11 
     8   8    -0.01  -0.00   0.02     0.00   0.00  -0.01     0.02  -0.00  -0.01 
     9   6    -0.03   0.00  -0.01     0.01   0.00   0.00     0.05  -0.00   0.03 
    10   1    -0.19   0.00  -0.02     0.08  -0.00   0.01     0.35  -0.00   0.05 
    11   6    -0.03  -0.02  -0.03     0.01  -0.05   0.01    -0.04   0.00  -0.00 
    12   6     0.04  -0.02   0.03    -0.01   0.01  -0.01    -0.02   0.01  -0.01 
    13   1    -0.05   0.00   0.01     0.02   0.01  -0.00     0.06  -0.00   0.05 
    14   1     0.27   0.27   0.39     0.41  -0.05   0.03     0.07   0.27   0.38 
    15   1     0.15   0.27  -0.23    -0.05   0.67   0.08     0.25  -0.01  -0.34 
    16   1    -0.09  -0.22   0.27    -0.47   0.14  -0.28     0.08  -0.26   0.39 
    17   1    -0.31   0.28  -0.05     0.10  -0.09   0.02     0.11  -0.10   0.02 
    18   1    -0.13   0.06  -0.37     0.04  -0.02   0.12     0.03  -0.02   0.12 
                     43                     44                     45 
                      A                      A                      A 
 Frequencies --   1544.4113              1663.6775              1680.0036 
 Red. masses --      2.7868                 6.3446                 6.8077 
 Frc consts  --      0.1000                 0.1000                 0.1000
 IR Inten    --      1.0000                 1.0000                 1.0000
  Atom  AN      X      Y      Z        X      Y      Z        X      Y      Z 
     1   6    -0.09  -0.00   0.17     0.07  -0.00   0.19    -0.21  -0.00   0.25 
     2   6     0.11  -0.00  -0.01    -0.22   0.00  -0.31     0.11  -0.00  -0.10 
     3   6    -0.07   0.00  -0.17    -0.23   0.01  -0.14     0.31  -0.01  -0.12 
     4   1     0.27   0.02  -0.47     0.21   0.00  -0.01     0.12   0.01  -0.35 
     5   6    -0.10   0.00  -0.07     0.23  -0.00   0.13    -0.27   0.00   0.09 
     6   1     0.01   0.00  -0.24     0.19   0.00   0.41     0.16  -0.00  -0.05 
     7   6     0.18  -0.00  -0.03     0.19  -0.00   0.28    -0.20   0.00   0.18 
     8   8     0.02  -0.01   0.05     0.02  -0.00  -0.00    -0.03   0.00   0.01 
     9   6    -0.06   0.00   0.15    -0.05   0.00  -0.19     0.23  -0.00  -0.28 
    10   1     0.33  -0.00  -0.09    -0.26   0.00   0.16     0.28  -0.00   0.10 
    11   6    -0.03   0.00   0.01    -0.01   0.00  -0.02     0.04  -0.00  -0.02 
    12   6    -0.01   0.00   0.00     0.00  -0.00   0.02     0.01  -0.01  -0.00 
    13   1     0.30  -0.00  -0.45    -0.23   0.01   0.09    -0.17   0.00   0.41 
    14   1    -0.03  -0.07  -0.09     0.06  -0.08  -0.12    -0.00  -0.03  -0.06 
    15   1    -0.14   0.01   0.14    -0.17   0.01   0.18    -0.02  -0.00   0.05 
    16   1    -0.04   0.07  -0.09     0.05   0.07  -0.12     0.00   0.03  -0.06 
    17   1    -0.05   0.04  -0.00    -0.00   0.01   0.02    -0.06   0.05  -0.02 
    18   1    -0.04   0.02  -0.07    -0.02   0.01  -0.05    -0.00  -0.00  -0.04 
                     46                     47                     48 
                      A                      A                      A 
 Frequencies --   3050.8428              3116.2161              3132.5704 
 Red. masses --      1.0361                 1.1006                 1.0471 
 Frc consts  --      0.1000                 0.1000                 0.1000
 IR Inten    --      1.0000                 1.0000                 1.0000
  Atom  AN      X      Y      Z        X      Y      Z        X      Y      Z 
     1   6    -0.00   0.00  -0.00     0.00  -0.00   0.00    -0.00  -0.00  -0.00 
     2   6     0.00   0.00   0.00    -0.00   0.00   0.00     0.00  -0.00  -0.00 
     3   6     0.00  -0.00   0.00    -0.00   0.00   0.00     0.00   0.00  -0.00 
     4   1     0.00   0.00   0.00    -0.00  -0.00  -0.00     0.03   0.00   0.02 
     5   6    -0.00  -0.00   0.00     0.00   0.00   0.00     0.00  -0.00  -0.00 
     6   1     0.00   0.00  -0.00    -0.00   0.00   0.00    -0.00  -0.00   0.00 
     7   6     0.00   0.00  -0.00     0.00  -0.00  -0.00     0.00  -0.00   0.00 
     8   8     0.00   0.00  -0.00     0.00  -0.00  -0.00    -0.00  -0.00   0.00 
     9   6     0.00  -0.00  -0.00     0.00  -0.00   0.00     0.00  -0.00   0.00 
    10   1    -0.00  -0.00  -0.00     0.00   0.00  -0.00    -0.00  -0.00   0.00 
    11   6    -0.04   0.00   0.03    -0.00  -0.09   0.00     0.00  -0.00   0.00 
    12   6    -0.00   0.00  -0.00    -0.00   0.00  -0.00     0.03  -0.04   0.02 
    13   1    -0.01   0.00  -0.00    -0.00  -0.00  -0.00    -0.00   0.00  -0.00 
    14   1     0.03   0.49  -0.35     0.05   0.55  -0.43     0.00   0.02  -0.01 
    15   1     0.40   0.00   0.33     0.01  -0.02   0.01    -0.03   0.00  -0.03 
    16   1     0.03  -0.50  -0.35    -0.04   0.57   0.42     0.00  -0.01  -0.01 
    17   1    -0.00   0.00   0.00    -0.00   0.00   0.00     0.07  -0.08  -0.54 
    18   1     0.00  -0.00  -0.00     0.00  -0.00  -0.00    -0.46   0.61   0.33 
                     49                     50                     51 
                      A                      A                      A 
 Frequencies --   3138.6178              3183.1200              3195.4441 
 Red. masses --      1.1030                 1.0878                 1.0894 
 Frc consts  --      0.1000                 0.1000                 0.1000
 IR Inten    --      1.0000                 1.0000                 1.0000
  Atom  AN      X      Y      Z        X      Y      Z        X      Y      Z 
     1   6    -0.00  -0.00  -0.00    -0.01  -0.00  -0.00     0.02   0.00   0.01 
     2   6     0.00  -0.00   0.00     0.02   0.00  -0.01    -0.06  -0.00   0.03 
     3   6     0.00  -0.00  -0.00     0.00   0.00   0.00    -0.00  -0.00   0.00 
     4   1     0.00   0.00   0.00     0.07   0.00   0.04    -0.26  -0.01  -0.15 
     5   6    -0.00   0.00  -0.00     0.00  -0.00   0.04     0.00   0.00  -0.03 
     6   1    -0.00  -0.00   0.00    -0.19  -0.00   0.11     0.68   0.00  -0.39 
     7   6     0.00  -0.00  -0.00    -0.00   0.00   0.00    -0.00  -0.00   0.00 
     8   8    -0.00  -0.00   0.00    -0.00   0.00  -0.00    -0.00  -0.00  -0.00 
     9   6     0.00  -0.00   0.00    -0.06   0.00  -0.04    -0.03   0.00  -0.02 
    10   1     0.00  -0.00   0.01    -0.00   0.00  -0.44    -0.00  -0.00   0.36 
    11   6    -0.05   0.00  -0.08    -0.00  -0.00  -0.00    -0.00   0.00  -0.00 
    12   6     0.00  -0.00   0.00     0.00  -0.00  -0.00     0.00  -0.00   0.00 
    13   1    -0.03   0.00  -0.02     0.74  -0.01   0.43     0.35  -0.00   0.20 
    14   1    -0.03  -0.30   0.21     0.00  -0.01   0.00     0.00  -0.00   0.00 
    15   1     0.66   0.00   0.54     0.03  -0.00   0.02     0.01   0.00   0.01 
    16   1    -0.03   0.29   0.19     0.00   0.01   0.00     0.00   0.00   0.00 
    17   1     0.00  -0.00  -0.03    -0.00   0.00   0.00     0.00  -0.00  -0.02 
    18   1    -0.02   0.03   0.02    -0.00   0.00   0.00    -0.00   0.01   0.00 
                     52                     53                     54 
                      A                      A                      A 
 Frequencies --   3210.7282              3220.2629              3286.6701 
 Red. masses --      1.0941                 1.0971                 1.1227 
 Frc consts  --      0.1000                 0.1000                 0.1000
 IR Inten    --      1.0000                 1.0000                 1.0000
  Atom  AN      X      Y      Z        X      Y      Z        X      Y      Z 
     1   6     0.04   0.00   0.02    -0.06  -0.00  -0.04     0.00   0.00   0.00 
     2   6    -0.02  -0.00   0.01    -0.04  -0.00   0.02     0.00  -0.00  -0.00 
     3   6    -0.00   0.00   0.00     0.00   0.00  -0.00     0.00   0.00   0.00 
     4   1    -0.49  -0.01  -0.29     0.65   0.01   0.38    -0.03  -0.00  -0.02 
     5   6     0.00  -0.00   0.07     0.00  -0.00   0.03    -0.00  -0.00   0.00 
     6   1     0.22   0.00  -0.12     0.45   0.00  -0.26    -0.00   0.00   0.00 
     7   6     0.00   0.00  -0.00     0.00  -0.00  -0.00    -0.00  -0.00   0.00 
     8   8     0.00  -0.00  -0.00    -0.00   0.00   0.00     0.00  -0.00   0.00 
     9   6     0.02  -0.00   0.01     0.01  -0.00   0.00    -0.00  -0.00  -0.00 
    10   1    -0.00   0.00  -0.73    -0.00   0.00  -0.37    -0.00  -0.00  -0.00 
    11   6     0.00   0.00   0.00     0.00  -0.00  -0.00     0.00   0.00   0.00 
    12   6     0.00  -0.00   0.00    -0.00   0.00  -0.00     0.03  -0.04  -0.09 
    13   1    -0.22   0.00  -0.13    -0.10   0.00  -0.06     0.00  -0.00   0.00 
    14   1    -0.00   0.00  -0.00    -0.00  -0.00   0.00    -0.00  -0.00  -0.00 
    15   1    -0.00   0.00  -0.00    -0.00  -0.00  -0.00    -0.00   0.00  -0.00 
    16   1    -0.00  -0.00  -0.00    -0.00   0.00   0.00    -0.00   0.00  -0.00 
    17   1     0.00  -0.00  -0.03    -0.00   0.00   0.04    -0.12   0.09   0.83 
    18   1    -0.01   0.01   0.01     0.01  -0.01  -0.01    -0.28   0.40   0.20 
