 Entering Gaussian System, 
                         Standard orientation:
 ---------------------------------------------------------------------
 Center     Atomic      Atomic             Coordinates (Angstroms)
 Number     Number       Type             X           Y           Z
 ---------------------------------------------------------------------
      1          6           0        0.000000   -0.000000    0.000000 
      2          8           0       -0.000000   -0.000000    1.199605 
      3          1           0        0.928374   -0.000000   -0.597265 
      4          1           0       -0.952281   -0.000042   -0.596940 
      5          8           0       -2.627227   -0.004140   -0.910065 
      6          1           0       -2.857582   -0.004885    0.033714 
 ---------------------------------------------------------------------

    99 basis functions,   99 primitive gaussians,   9 cartesian basis functions
    99 alpha electrons       99 beta electrons

 **********************************************************************

 Harmonic frequencies (cm**-1), IR intensities (KM/Mole), Raman scattering
 activities (A**4/AMU), depolarization ratios for plane and unpolarized
 incident light, reduced masses (AMU), force constants (mDyne/A),
 and normal coordinates: 
                      1                      2                      3 
                      A                      A                      A 
 Frequencies --   -202.6791                -0.0000                -0.0000 
 Red. masses --      2.7487                 7.9180                 2.7005 
 Frc consts  --      0.1000                 0.1000                 0.1000
 IR Inten    --      1.0000                 1.0000                 1.0000
  Atom  AN      X      Y      Z        X      Y      Z        X      Y      Z 
     1   6    -0.30  -0.00   0.02    -0.01  -0.00   0.01    -0.00   0.35  -0.00 
     2   8     0.10   0.00  -0.00     0.26   0.00   0.01     0.00  -0.14  -0.00 
     3   1    -0.52   0.00  -0.34    -0.14  -0.00  -0.20    -0.00   0.86  -0.00 
     4   1    -0.59  -0.01   0.30    -0.14  -0.00   0.22    -0.00   0.34   0.00 
     5   8     0.20   0.00  -0.00    -0.21   0.00   0.59     0.00   0.01  -0.00 
     6   1    -0.15  -0.00  -0.09     0.00   0.00   0.64     0.00  -0.05  -0.00 
                      4                      5                      6 
                      A                      A                      A 
 Frequencies --     -0.0000                -0.0000                 0.0000 
 Red. masses --      7.8713                 1.3068                 3.3028 
 Frc consts  --      0.1000                 0.1000                 0.1000
 IR Inten    --      1.0000                 1.0000                 1.0000
  Atom  AN      X      Y      Z        X      Y      Z        X      Y      Z 
     1   6     0.41  -0.00  -0.03    -0.00  -0.00   0.00    -0.00   0.01   0.00 
     2   8     0.41  -0.00  -0.03    -0.00  -0.02   0.00    -0.00   0.01   0.00 
     3   1     0.40  -0.00  -0.04    -0.00   0.06   0.00    -0.00  -0.12   0.00 
     4   1     0.40  -0.00  -0.03    -0.00  -0.05   0.00    -0.00   0.15  -0.00 
     5   8     0.40   0.00  -0.02    -0.00  -0.14  -0.00    -0.00   0.39  -0.00 
     6   1     0.41   0.02  -0.02    -0.00   0.99   0.00    -0.00   0.90  -0.00 
                      7                      8                      9 
                      A                      A                      A 
 Frequencies --      0.0000                 0.0000                73.7341 
 Red. masses --     14.0507                 7.5375                 5.0989 
 Frc consts  --      0.1000                 0.1000                 0.1000
 IR Inten    --      1.0000                 1.0000                 1.0000
  Atom  AN      X      Y      Z        X      Y      Z        X      Y      Z 
     1   6     0.00   0.41  -0.00    -0.04  -0.00  -0.47    -0.02  -0.00  -0.13 
     2   8    -0.00   0.86  -0.00     0.13   0.00  -0.47    -0.32   0.00  -0.14 
     3   1     0.00   0.23   0.00    -0.12  -0.00  -0.60     0.12   0.02   0.09 
     4   1     0.00   0.14  -0.00    -0.12  -0.00  -0.34     0.09  -0.03  -0.36 
     5   8     0.00  -0.05   0.00    -0.16  -0.00  -0.10     0.28   0.00   0.24 
     6   1     0.00   0.11   0.00    -0.03   0.00  -0.07     0.67   0.00   0.33 
                     10                     11                     12 
                      A                      A                      A 
 Frequencies --     85.9758               555.8777              1184.0276 
 Red. masses --      1.0599                 1.1486                 1.3663 
 Frc consts  --      0.1000                 0.1000                 0.1000
 IR Inten    --      1.0000                 1.0000                 1.0000
  Atom  AN      X      Y      Z        X      Y      Z        X      Y      Z 
     1   6    -0.00   0.05  -0.00     0.05   0.00  -0.02    -0.00  -0.17  -0.00 
     2   8    -0.00  -0.02  -0.00    -0.04  -0.00  -0.02     0.00   0.04   0.00 
     3   1    -0.00  -0.62  -0.00     0.09  -0.00   0.04    -0.00   0.69   0.00 
     4   1    -0.00   0.78  -0.00     0.05   0.00  -0.01     0.00   0.70   0.00 
     5   8     0.00  -0.03   0.00     0.05   0.00   0.05     0.00  -0.00   0.00 
     6   1     0.00   0.00   0.00    -0.97  -0.00  -0.20    -0.00  -0.00  -0.00 
                     13                     14                     15 
                      A                      A                      A 
 Frequencies --   1250.0648              1526.7789              1809.0628 
 Red. masses --      1.3677                 1.1320                 6.3937 
 Frc consts  --      0.1000                 0.1000                 0.1000
 IR Inten    --      1.0000                 1.0000                 1.0000
  Atom  AN      X      Y      Z        X      Y      Z        X      Y      Z 
     1   6    -0.16  -0.00  -0.01     0.01  -0.00   0.02     0.01  -0.00   0.55 
     2   8     0.08  -0.00  -0.00    -0.00   0.00  -0.09     0.00   0.00  -0.37 
     3   1     0.28  -0.00   0.68     0.34   0.00   0.59    -0.43   0.00  -0.21 
     4   1     0.26  -0.00  -0.60    -0.40   0.00   0.61     0.44   0.00  -0.37 
     5   8     0.01   0.00   0.00    -0.00  -0.00  -0.00    -0.01  -0.00   0.00 
     6   1    -0.05  -0.00  -0.01     0.05   0.00   0.01    -0.03  -0.00  -0.01 
                     16                     17                     18 
                      A                      A                      A 
 Frequencies --   2476.4595              2947.6999              3741.3046 
 Red. masses --      1.0784                 1.0888                 1.0671 
 Frc consts  --      0.1000                 0.1000                 0.1000
 IR Inten    --      1.0000                 1.0000                 1.0000
  Atom  AN      X      Y      Z        X      Y      Z        X      Y      Z 
     1   6    -0.07   0.00  -0.04    -0.08  -0.00   0.04     0.00  -0.00   0.00 
     2   8    -0.00  -0.00  -0.01     0.00   0.00  -0.00     0.00   0.00  -0.00 
     3   1    -0.12  -0.00   0.04     0.85  -0.00  -0.52    -0.00   0.00  -0.00 
     4   1     0.81  -0.00   0.56     0.05  -0.00   0.06    -0.01  -0.00  -0.01 
     5   8     0.01   0.00  -0.00     0.00   0.00  -0.00     0.02   0.00  -0.06 
     6   1     0.00   0.00   0.01     0.00   0.00   0.00    -0.24  -0.00   0.97 
