 Entering Gaussian System, 
                         Standard orientation:
 ---------------------------------------------------------------------
 Center     Atomic      Atomic             Coordinates (Angstroms)
 Number     Number       Type             X           Y           Z
 ---------------------------------------------------------------------
      1          6           0       -1.609220   -0.084380    0.229370 
      2          6           0       -1.609130   -0.084360    1.618030 
      3          6           0       -0.401450   -0.083780   -0.453580 
      4          1           0       -2.532420   -0.076610   -0.337720 
      5          6           0       -0.406370   -0.067620    2.315280 
      6          1           0       -2.551260   -0.083750    2.154220 
      7          6           0        0.824440   -0.103460    0.225220 
      8          8           0       -0.434820   -0.097420   -1.827780 
      9          6           0        0.795540   -0.074180    1.617940 
     10          1           0       -0.403460   -0.052030    3.398940 
     11          6           0        2.080420   -0.157550   -0.575000 
     12          6           0        0.537480    0.668470   -2.451370 
     13          1           0        1.735950   -0.074000    2.159730 
     14          1           0        2.908290    0.431910   -0.181770 
     15          1           0        2.391610   -1.166580   -0.854960 
     16          1           0        1.731310    0.328180   -1.622020 
     17          1           0        0.685570    0.338460   -3.474690 
     18          1           0        0.414490    1.744260   -2.308810 
 ---------------------------------------------------------------------

    99 basis functions,   99 primitive gaussians,   9 cartesian basis functions
    99 alpha electrons       99 beta electrons

 **********************************************************************

 Harmonic frequencies (cm**-1), IR intensities (KM/Mole), Raman scattering
 activities (A**4/AMU), depolarization ratios for plane and unpolarized
 incident light, reduced masses (AMU), force constants (mDyne/A),
 and normal coordinates: 
                      1                      2                      3 
                      A                      A                      A 
 Frequencies --      0.0000                 0.0000                 0.0000 
 Red. masses --      2.6981                 3.0615                 1.3060 
 Frc consts  --      0.1000                 0.1000                 0.1000
 IR Inten    --      1.0000                 1.0000                 1.0000
  Atom  AN      X      Y      Z        X      Y      Z        X      Y      Z 
     1   6     0.00   0.11   0.02    -0.01  -0.12   0.02     0.00   0.01   0.00 
     2   6    -0.00  -0.01   0.02     0.01  -0.17   0.02     0.00  -0.06   0.01 
     3   6    -0.00   0.11   0.01    -0.02   0.08  -0.00     0.00   0.05   0.02 
     4   1    -0.00   0.17   0.03    -0.02  -0.23   0.03     0.00  -0.01   0.00 
     5   6    -0.00  -0.15   0.02     0.01   0.04   0.01    -0.01  -0.02   0.02 
     6   1    -0.00  -0.03   0.02     0.01  -0.34   0.03    -0.00  -0.13   0.00 
     7   6    -0.00   0.06   0.01    -0.01   0.09  -0.01    -0.00   0.05   0.03 
     8   8    -0.05   0.05   0.01    -0.08   0.19   0.00     0.06  -0.01   0.01 
     9   6    -0.01  -0.09   0.02    -0.00   0.15  -0.01     0.00   0.06   0.02 
    10   1     0.00  -0.28   0.03     0.02   0.07   0.01    -0.01  -0.07   0.02 
    11   6     0.02   0.14   0.05    -0.00  -0.16   0.01    -0.05  -0.04  -0.03 
    12   6     0.03  -0.20  -0.15     0.11  -0.07  -0.03    -0.00   0.01  -0.05 
    13   1    -0.00  -0.16   0.01     0.01   0.23  -0.03     0.00   0.06   0.03 
    14   1    -0.07   0.30   0.02     0.01  -0.08  -0.14     0.17  -0.47   0.14 
    15   1     0.18   0.15   0.18    -0.04  -0.26   0.33    -0.42  -0.06  -0.38 
    16   1     0.02  -0.01   0.01     0.05  -0.40  -0.11     0.04   0.29   0.12 
    17   1     0.08  -0.51  -0.05    -0.08  -0.07  -0.06     0.22  -0.22   0.06 
    18   1     0.10  -0.14  -0.48     0.45  -0.04   0.03    -0.20   0.03  -0.32 
                      4                      5                      6 
                      A                      A                      A 
 Frequencies --      0.0000                 0.0000                 0.0000 
 Red. masses --      2.7048                 3.1550                 3.1579 
 Frc consts  --      0.1000                 0.1000                 0.1000
 IR Inten    --      1.0000                 1.0000                 1.0000
  Atom  AN      X      Y      Z        X      Y      Z        X      Y      Z 
     1   6     0.00  -0.17   0.02    -0.09   0.06   0.05     0.03   0.18  -0.03 
     2   6     0.01   0.05   0.02     0.08  -0.01   0.08    -0.03  -0.12  -0.04 
     3   6    -0.01  -0.10  -0.01    -0.15  -0.03  -0.09     0.04  -0.10   0.02 
     4   1    -0.01  -0.21   0.04    -0.19   0.12   0.21     0.08   0.50  -0.10 
     5   6     0.01   0.15   0.02     0.12  -0.04   0.01    -0.03  -0.04  -0.06 
     6   1     0.01   0.17   0.02     0.13  -0.03   0.16    -0.04  -0.20  -0.05 
     7   6    -0.01  -0.17   0.00    -0.15   0.00  -0.09     0.07  -0.19  -0.02 
     8   8    -0.06   0.16  -0.02     0.00  -0.06  -0.12    -0.12   0.04   0.04 
     9   6    -0.00  -0.09   0.00     0.02   0.06  -0.12     0.00   0.18  -0.02 
    10   1     0.02   0.37   0.01     0.21  -0.09   0.01    -0.03  -0.01  -0.06 
    11   6     0.02   0.06   0.05    -0.03   0.03   0.14     0.12  -0.02   0.02 
    12   6     0.03   0.02  -0.07     0.12  -0.00   0.09    -0.06  -0.02   0.08 
    13   1     0.01  -0.08  -0.02     0.10   0.12  -0.27    -0.03   0.52   0.03 
    14   1    -0.02  -0.04   0.27    -0.11  -0.06   0.46     0.04   0.01   0.14 
    15   1     0.07   0.14  -0.20    -0.01   0.04   0.13     0.24   0.07  -0.16 
    16   1     0.07   0.26   0.19     0.19   0.11   0.19     0.02   0.11   0.10 
    17   1     0.30  -0.32   0.08     0.40   0.03   0.12     0.14  -0.15   0.15 
    18   1    -0.04   0.06  -0.44     0.06  -0.02   0.12    -0.13  -0.00  -0.09 
                      7                      8                      9 
                      A                      A                      A 
 Frequencies --      0.0000                 0.0000                 0.0000 
 Red. masses --      3.5580                 2.0140                 2.5536 
 Frc consts  --      0.1000                 0.1000                 0.1000
 IR Inten    --      1.0000                 1.0000                 1.0000
  Atom  AN      X      Y      Z        X      Y      Z        X      Y      Z 
     1   6    -0.03  -0.09  -0.03    -0.06   0.03  -0.01     0.08  -0.04  -0.08 
     2   6    -0.05   0.08  -0.06    -0.02  -0.09  -0.01     0.10   0.08  -0.09 
     3   6    -0.00   0.06   0.04    -0.03   0.15   0.04     0.04  -0.04  -0.06 
     4   1     0.02  -0.26  -0.12    -0.05  -0.12  -0.02     0.08  -0.05  -0.07 
     5   6    -0.00  -0.02  -0.14     0.02   0.11  -0.07     0.03  -0.08   0.03 
     6   1    -0.02   0.14  -0.01     0.02  -0.29   0.05     0.07   0.19  -0.15 
     7   6     0.08   0.17  -0.08    -0.00  -0.03  -0.03    -0.01   0.09   0.07 
     8   8    -0.15   0.00   0.09     0.06  -0.04   0.06    -0.11   0.00  -0.07 
     9   6     0.02  -0.06  -0.10     0.02  -0.07  -0.05     0.04   0.03   0.08 
    10   1     0.03  -0.09  -0.14     0.04   0.17  -0.07    -0.08  -0.18   0.03 
    11   6     0.16   0.04   0.01     0.02  -0.06  -0.01    -0.04  -0.09   0.11 
    12   6    -0.02  -0.11   0.21    -0.04   0.06   0.06    -0.09   0.07   0.04 
    13   1    -0.01  -0.26  -0.04     0.02  -0.20  -0.04     0.06  -0.00   0.05 
    14   1     0.32  -0.34   0.22    -0.15   0.26  -0.12    -0.05   0.09  -0.14 
    15   1    -0.17  -0.01  -0.19     0.28  -0.05   0.27    -0.02  -0.15   0.37 
    16   1     0.22   0.20   0.10    -0.03  -0.16  -0.02    -0.18  -0.18   0.03 
    17   1     0.13  -0.12   0.24     0.35  -0.23   0.21     0.42  -0.15   0.19 
    18   1     0.05  -0.11   0.22    -0.37   0.07  -0.29    -0.42   0.08  -0.28 
                     10                     11                     12 
                      A                      A                      A 
 Frequencies --      0.0000                 0.0000                 0.0000 
 Red. masses --      3.0298                 5.1807                 2.2417 
 Frc consts  --      0.1000                 0.1000                 0.1000
 IR Inten    --      1.0000                 1.0000                 1.0000
  Atom  AN      X      Y      Z        X      Y      Z        X      Y      Z 
     1   6    -0.03  -0.07   0.12    -0.20  -0.07  -0.11    -0.02   0.06  -0.01 
     2   6    -0.13   0.12   0.14     0.04   0.09  -0.14     0.00  -0.14  -0.01 
     3   6    -0.01  -0.11   0.03    -0.08  -0.12   0.14    -0.01  -0.16   0.01 
     4   1    -0.02   0.01   0.10    -0.18   0.12  -0.15    -0.02   0.55   0.00 
     5   6    -0.06  -0.13   0.02     0.11  -0.13  -0.20    -0.00   0.07   0.01 
     6   1    -0.13   0.33   0.13     0.16   0.36   0.06     0.00   0.17  -0.00 
     7   6     0.04   0.05  -0.08    -0.06  -0.03   0.06     0.00   0.15   0.02 
     8   8     0.08   0.02   0.01     0.14   0.09   0.22    -0.01   0.01  -0.01 
     9   6    -0.09   0.08  -0.08     0.19   0.08   0.00     0.02  -0.11   0.04 
    10   1     0.10  -0.24   0.02    -0.02  -0.12  -0.20    -0.05   0.44   0.01 
    11   6     0.09  -0.05  -0.13    -0.17   0.03  -0.00    -0.05   0.06  -0.11 
    12   6     0.04   0.08  -0.01     0.01  -0.01  -0.01     0.02  -0.01   0.04 
    13   1    -0.12   0.18  -0.04     0.19   0.30  -0.01     0.02  -0.04   0.05 
    14   1     0.05   0.11  -0.27    -0.23   0.08   0.04     0.07  -0.03  -0.20 
    15   1     0.18  -0.11   0.18    -0.08   0.00   0.18    -0.20  -0.07   0.17 
    16   1     0.13  -0.17  -0.11     0.05  -0.08   0.02     0.17  -0.11  -0.00 
    17   1     0.38  -0.20   0.14    -0.22  -0.20   0.01     0.37  -0.12   0.14 
    18   1    -0.15   0.10  -0.31     0.15   0.02  -0.14     0.17  -0.00   0.07 
                     13                     14                     15 
                      A                      A                      A 
 Frequencies --     -0.0000                 0.0000                 0.0000 
 Red. masses --      1.3946                 2.7602                 2.8593 
 Frc consts  --      0.1000                 0.1000                 0.1000
 IR Inten    --      1.0000                 1.0000                 1.0000
  Atom  AN      X      Y      Z        X      Y      Z        X      Y      Z 
     1   6     0.00   0.00  -0.00    -0.17   0.01  -0.04     0.15  -0.02  -0.02 
     2   6    -0.00   0.00  -0.00    -0.00   0.06  -0.01     0.07   0.04  -0.05 
     3   6     0.01   0.01   0.01    -0.08   0.04   0.01     0.05   0.10  -0.02 
     4   1     0.00  -0.00  -0.00    -0.23  -0.29   0.03     0.16  -0.20  -0.03 
     5   6    -0.00  -0.00  -0.00    -0.00   0.00   0.05    -0.02  -0.04   0.09 
     6   1    -0.00  -0.00  -0.00     0.05  -0.24   0.09    -0.02   0.00  -0.22 
     7   6     0.00   0.00   0.00     0.04  -0.07   0.08    -0.07  -0.10  -0.04 
     8   8     0.02  -0.01  -0.01    -0.05  -0.02  -0.11     0.02   0.01   0.07 
     9   6    -0.00  -0.00  -0.00     0.12   0.04   0.18    -0.09   0.02  -0.04 
    10   1    -0.00  -0.00  -0.00    -0.19  -0.27   0.06    -0.02   0.01   0.09 
    11   6     0.04  -0.01   0.01     0.07   0.03  -0.16    -0.17   0.06  -0.16 
    12   6    -0.15   0.04  -0.09     0.03  -0.01   0.01    -0.02  -0.07   0.12 
    13   1    -0.00  -0.00   0.00     0.08  -0.04   0.25    -0.04   0.21  -0.12 
    14   1     0.04  -0.14   0.24     0.08   0.05  -0.19    -0.27   0.08   0.02 
    15   1     0.05  -0.08   0.27     0.17   0.06  -0.20     0.01   0.07   0.00 
    16   1     0.70  -0.22   0.48     0.15  -0.01   0.05     0.22  -0.04   0.10 
    17   1    -0.05   0.01  -0.06     0.46   0.00   0.08     0.45  -0.20   0.25 
    18   1     0.10   0.02   0.12     0.25  -0.02   0.20     0.34  -0.07   0.28 
                     16                     17                     18 
                      A                      A                      A 
 Frequencies --      0.0000                 0.0000                 0.0000 
 Red. masses --      1.5387                 3.6487                 1.4001 
 Frc consts  --      0.1000                 0.1000                 0.1000
 IR Inten    --      1.0000                 1.0000                 1.0000
  Atom  AN      X      Y      Z        X      Y      Z        X      Y      Z 
     1   6    -0.03  -0.06  -0.01     0.10   0.02   0.12    -0.02   0.11  -0.01 
     2   6     0.00  -0.04   0.00    -0.20   0.02   0.11     0.02   0.05  -0.01 
     3   6    -0.02   0.15  -0.01     0.10   0.03   0.06    -0.01  -0.07  -0.01 
     4   1    -0.05   0.17   0.02     0.24  -0.25  -0.11    -0.04  -0.63   0.01 
     5   6    -0.00  -0.10   0.01     0.00  -0.03  -0.25     0.00  -0.04   0.02 
     6   1     0.01   0.56   0.01    -0.14  -0.08   0.22     0.02  -0.34  -0.01 
     7   6     0.01  -0.02   0.01     0.07  -0.03   0.06    -0.01   0.03  -0.01 
     8   8    -0.01  -0.03  -0.03    -0.05  -0.03  -0.11     0.00   0.01   0.02 
     9   6     0.02  -0.02   0.03     0.13  -0.02  -0.00    -0.02  -0.10  -0.00 
    10   1    -0.03   0.62   0.00     0.15   0.11  -0.25    -0.01   0.31   0.02 
    11   6     0.05  -0.01   0.01    -0.18   0.04   0.06     0.02   0.01   0.00 
    12   6    -0.00  -0.00  -0.00     0.01   0.02  -0.05     0.01   0.01   0.00 
    13   1     0.01   0.46   0.03     0.03   0.21   0.17    -0.00   0.55  -0.03 
    14   1     0.06  -0.01  -0.02    -0.15   0.02   0.02     0.09  -0.05  -0.04 
    15   1     0.04   0.00  -0.05    -0.21   0.00   0.14    -0.08  -0.05   0.08 
    16   1    -0.03   0.02  -0.01    -0.12  -0.05   0.10     0.02  -0.02  -0.04 
    17   1    -0.01   0.06  -0.02     0.42   0.09  -0.00    -0.10  -0.01  -0.01 
    18   1    -0.06  -0.01   0.02     0.24   0.00   0.19    -0.07   0.01  -0.08 
                     19                     20                     21 
                      A                      A                      A 
 Frequencies --      0.0000                 0.0000                 0.0000 
 Red. masses --      1.3661                 1.2970                 1.5753 
 Frc consts  --      0.1000                 0.1000                 0.1000
 IR Inten    --      1.0000                 1.0000                 1.0000
  Atom  AN      X      Y      Z        X      Y      Z        X      Y      Z 
     1   6    -0.00  -0.10  -0.00    -0.00  -0.05  -0.00     0.04  -0.01   0.01 
     2   6     0.00   0.07   0.00     0.00   0.10   0.00    -0.07   0.01   0.00 
     3   6    -0.00   0.04  -0.00    -0.00  -0.01   0.00     0.00   0.00  -0.02 
     4   1    -0.00   0.53   0.01     0.00   0.32  -0.00     0.09   0.05  -0.07 
     5   6     0.00   0.06  -0.00    -0.00  -0.10   0.00    -0.01   0.00   0.02 
     6   1     0.01  -0.40   0.01     0.01  -0.63   0.01    -0.13  -0.04  -0.10 
     7   6     0.00  -0.00   0.00     0.00   0.01   0.00    -0.03   0.02  -0.03 
     8   8     0.00  -0.01  -0.01     0.00  -0.00  -0.00    -0.04  -0.00  -0.01 
     9   6    -0.00  -0.10  -0.00    -0.00   0.05  -0.00     0.10  -0.00   0.07 
    10   1     0.01  -0.37   0.00    -0.00   0.60  -0.01    -0.12   0.01   0.03 
    11   6     0.01   0.02   0.01    -0.00  -0.00   0.00    -0.03  -0.01  -0.11 
    12   6    -0.00  -0.00   0.01    -0.01  -0.00  -0.00     0.10  -0.01   0.05 
    13   1    -0.00   0.59  -0.01    -0.00  -0.34  -0.00     0.11   0.01   0.06 
    14   1     0.09  -0.04  -0.07    -0.01   0.01  -0.01    -0.26  -0.09   0.51 
    15   1    -0.10  -0.04   0.08     0.01   0.01  -0.02     0.18  -0.04   0.23 
    16   1    -0.01  -0.03  -0.02    -0.01   0.00   0.01     0.29   0.07  -0.14 
    17   1    -0.00   0.01   0.00     0.02  -0.00   0.00    -0.34   0.08  -0.06 
    18   1    -0.04  -0.01  -0.00     0.02  -0.00   0.01    -0.42  -0.02  -0.20 
                     22                     23                     24 
                      A                      A                      A 
 Frequencies --      0.0000                 0.0000                 0.0000 
 Red. masses --      1.8317                 1.6118                 3.6060 
 Frc consts  --      0.1000                 0.1000                 0.1000
 IR Inten    --      1.0000                 1.0000                 1.0000
  Atom  AN      X      Y      Z        X      Y      Z        X      Y      Z 
     1   6    -0.04  -0.00  -0.09     0.03  -0.00   0.07     0.08   0.01   0.06 
     2   6    -0.12   0.00   0.04     0.08   0.01  -0.03    -0.08   0.00   0.05 
     3   6     0.02  -0.02   0.00    -0.01  -0.02   0.02    -0.05  -0.01  -0.21 
     4   1     0.17   0.03  -0.45    -0.10   0.05   0.31    -0.16  -0.02   0.45 
     5   6     0.04   0.01   0.13    -0.03   0.00  -0.09    -0.04  -0.00  -0.07 
     6   1    -0.19  -0.03  -0.06     0.12  -0.04   0.02    -0.17  -0.00  -0.11 
     7   6     0.00   0.08  -0.03    -0.01   0.11   0.00    -0.07   0.00   0.00 
     8   8     0.02   0.01   0.00    -0.01  -0.01   0.01     0.17   0.12  -0.08 
     9   6     0.08  -0.03  -0.02    -0.04  -0.04   0.03     0.13   0.00   0.06 
    10   1     0.22  -0.00   0.14    -0.18  -0.00  -0.10    -0.21  -0.00  -0.06 
    11   6    -0.01  -0.09   0.04    -0.01  -0.11  -0.01     0.03  -0.01   0.04 
    12   6    -0.06  -0.01  -0.02    -0.00   0.01  -0.03    -0.17  -0.13   0.16 
    13   1     0.25   0.13  -0.31    -0.16   0.16   0.22     0.16   0.01   0.02 
    14   1    -0.22   0.17   0.09    -0.33   0.18   0.23     0.12   0.09  -0.30 
    15   1     0.29   0.12  -0.36     0.46   0.15  -0.41    -0.00   0.04  -0.19 
    16   1    -0.12   0.11   0.10    -0.01   0.16   0.11    -0.01  -0.01   0.09 
    17   1     0.12  -0.03   0.02     0.08   0.02  -0.02    -0.35  -0.32   0.20 
    18   1     0.18  -0.01   0.11     0.13   0.01   0.07    -0.05  -0.08  -0.01 
                     25                     26                     27 
                      A                      A                      A 
 Frequencies --      0.0000                 0.0000                 0.0000 
 Red. masses --      1.8237                 1.1759                 1.2521 
 Frc consts  --      0.1000                 0.1000                 0.1000
 IR Inten    --      1.0000                 1.0000                 1.0000
  Atom  AN      X      Y      Z        X      Y      Z        X      Y      Z 
     1   6    -0.07   0.00  -0.08    -0.04   0.00   0.02    -0.01   0.00   0.02 
     2   6     0.03  -0.00   0.05    -0.04  -0.00  -0.06     0.01   0.00  -0.00 
     3   6     0.06  -0.00  -0.01     0.03  -0.00   0.01     0.02  -0.01   0.03 
     4   1     0.02  -0.01  -0.24    -0.27   0.00   0.40    -0.04  -0.01   0.07 
     5   6     0.04  -0.00  -0.01     0.05   0.00   0.02    -0.03   0.00   0.01 
     6   1     0.26   0.01   0.45    -0.32  -0.01  -0.55     0.04   0.00   0.06 
     7   6     0.07   0.01   0.02     0.04  -0.00  -0.02     0.01  -0.00  -0.00 
     8   8     0.05   0.07  -0.08     0.01   0.01   0.00     0.02   0.06   0.02 
     9   6    -0.10  -0.00   0.02    -0.00   0.00   0.01     0.01   0.00  -0.03 
    10   1     0.42   0.01  -0.01     0.48   0.00   0.02    -0.34  -0.00   0.01 
    11   6    -0.04  -0.01  -0.03    -0.01   0.00   0.01    -0.01  -0.00   0.01 
    12   6    -0.05  -0.09   0.07    -0.02  -0.02  -0.02     0.00  -0.09  -0.05 
    13   1    -0.32   0.01   0.38    -0.09  -0.01   0.17     0.15  -0.01  -0.27 
    14   1    -0.14  -0.01   0.18    -0.03  -0.03   0.11     0.00   0.03  -0.07 
    15   1     0.06  -0.01   0.08    -0.04  -0.02   0.08    -0.02  -0.01   0.02 
    16   1    -0.01   0.05  -0.02    -0.09   0.01  -0.05     0.01   0.04   0.05 
    17   1    -0.08   0.06   0.01     0.13   0.10  -0.04     0.35   0.39  -0.16 
    18   1    -0.28  -0.11   0.05    -0.08  -0.04   0.10    -0.54  -0.21   0.32 
                     28                     29                     30 
                      A                      A                      A 
 Frequencies --      0.0000                 0.0000                 0.0000 
 Red. masses --      1.4378                 2.0103                 3.6048 
 Frc consts  --      0.1000                 0.1000                 0.1000
 IR Inten    --      1.0000                 1.0000                 1.0000
  Atom  AN      X      Y      Z        X      Y      Z        X      Y      Z 
     1   6     0.04  -0.00  -0.01    -0.05   0.00  -0.02     0.02   0.00   0.12 
     2   6    -0.02  -0.00   0.00     0.02  -0.00  -0.01     0.06  -0.00  -0.07 
     3   6    -0.03  -0.00  -0.04     0.05   0.01   0.08    -0.06  -0.01   0.29 
     4   1     0.11   0.00  -0.13    -0.24  -0.00   0.29     0.36  -0.00  -0.40 
     5   6     0.04  -0.00  -0.04    -0.05   0.00   0.04     0.05  -0.00  -0.06 
     6   1    -0.06  -0.00  -0.06    -0.03   0.00  -0.08    -0.13  -0.01  -0.45 
     7   6    -0.11   0.00   0.07     0.16   0.00   0.05    -0.14   0.01   0.09 
     8   8    -0.04  -0.01   0.04    -0.03  -0.01  -0.09     0.07   0.04  -0.19 
     9   6    -0.02   0.00   0.03    -0.01  -0.00  -0.09    -0.08  -0.00   0.01 
    10   1     0.44   0.00  -0.05    -0.08   0.00   0.04     0.10   0.00  -0.07 
    11   6     0.00  -0.01  -0.00    -0.11  -0.02   0.02     0.09  -0.00  -0.05 
    12   6     0.09  -0.01  -0.01     0.06   0.00   0.08    -0.06  -0.06   0.06 
    13   1    -0.06   0.00   0.08     0.13   0.00  -0.34     0.11  -0.00  -0.35 
    14   1     0.13   0.15  -0.50    -0.11   0.19  -0.29     0.10  -0.07   0.05 
    15   1     0.08   0.08  -0.27    -0.00   0.07  -0.14     0.11  -0.02   0.02 
    16   1     0.38   0.01   0.29     0.34   0.05   0.37    -0.12   0.02  -0.11 
    17   1    -0.04   0.10  -0.06    -0.38  -0.10   0.04    -0.11   0.08  -0.00 
    18   1    -0.30  -0.06   0.04    -0.05   0.05  -0.25     0.01   0.00  -0.19 
                     31                     32                     33 
                      A                      A                      A 
 Frequencies --      0.0000                 0.0000                 0.0000 
 Red. masses --      1.5939                 4.3975                 1.1165 
 Frc consts  --      0.1000                 0.1000                 0.1000
 IR Inten    --      1.0000                 1.0000                 1.0000
  Atom  AN      X      Y      Z        X      Y      Z        X      Y      Z 
     1   6     0.00   0.00   0.02     0.13   0.00  -0.17     0.01  -0.00  -0.00 
     2   6     0.06   0.00   0.04     0.10   0.00   0.16    -0.00  -0.00  -0.01 
     3   6    -0.13  -0.01   0.04    -0.24  -0.01  -0.03    -0.00   0.00  -0.01 
     4   1     0.23  -0.01  -0.35    -0.06  -0.02   0.15     0.00  -0.00   0.00 
     5   6    -0.02  -0.00   0.04    -0.21  -0.00  -0.04    -0.00   0.00  -0.00 
     6   1    -0.16  -0.00  -0.36    -0.11  -0.00  -0.21     0.01   0.00   0.03 
     7   6     0.07  -0.01  -0.09     0.09   0.02   0.28    -0.02  -0.01  -0.00 
     8   8     0.02   0.01  -0.01     0.01   0.01   0.03    -0.00  -0.00   0.01 
     9   6     0.07  -0.00  -0.07     0.07  -0.01  -0.15     0.00   0.00   0.01 
    10   1    -0.27  -0.00   0.04     0.49   0.00  -0.05     0.03  -0.00  -0.00 
    11   6    -0.03  -0.00   0.05     0.03  -0.00  -0.09     0.07  -0.04  -0.04 
    12   6     0.01  -0.01  -0.00    -0.01  -0.01  -0.03    -0.00  -0.01  -0.00 
    13   1    -0.31   0.01   0.60     0.07   0.02  -0.16     0.01   0.00  -0.00 
    14   1    -0.04   0.13  -0.14    -0.03  -0.18   0.31    -0.25   0.40  -0.03 
    15   1    -0.13   0.01  -0.07     0.24  -0.02   0.22    -0.41  -0.26   0.27 
    16   1     0.09  -0.02   0.11    -0.24   0.10  -0.06    -0.10   0.57   0.31 
    17   1    -0.00   0.02  -0.02     0.11   0.07  -0.04    -0.04   0.04  -0.02 
    18   1    -0.08  -0.03   0.02     0.01  -0.03   0.08     0.11   0.01  -0.00 
                     34                     35                     36 
                      A                      A                      A 
 Frequencies --      0.0000                 0.0000                 0.0000 
 Red. masses --      1.1298                 1.1392                 2.2719 
 Frc consts  --      0.1000                 0.1000                 0.1000
 IR Inten    --      1.0000                 1.0000                 1.0000
  Atom  AN      X      Y      Z        X      Y      Z        X      Y      Z 
     1   6    -0.03  -0.00   0.03     0.02   0.00  -0.03    -0.08  -0.00  -0.03 
     2   6    -0.00  -0.00   0.02    -0.02  -0.00  -0.00     0.02   0.00   0.16 
     3   6     0.02   0.00  -0.04     0.00  -0.00   0.01     0.09   0.00  -0.10 
     4   1     0.03   0.00  -0.09    -0.05  -0.00   0.09    -0.05   0.01  -0.13 
     5   6     0.05   0.00  -0.01    -0.01   0.00   0.02     0.16  -0.00  -0.07 
     6   1    -0.08  -0.00  -0.12     0.03   0.00   0.09    -0.33  -0.01  -0.44 
     7   6     0.01   0.00   0.01    -0.03   0.00  -0.02    -0.01   0.00   0.14 
     8   8    -0.00  -0.00   0.01     0.00  -0.01   0.02    -0.02  -0.01   0.03 
     9   6    -0.02   0.00  -0.01     0.02   0.00  -0.01    -0.08  -0.00  -0.04 
    10   1    -0.18  -0.00  -0.01     0.00   0.00   0.02    -0.53  -0.01  -0.08 
    11   6    -0.06  -0.01  -0.02    -0.01  -0.00   0.01     0.04   0.00  -0.04 
    12   6     0.01   0.00  -0.01    -0.04  -0.05   0.05    -0.01  -0.01   0.02 
    13   1    -0.04  -0.00   0.02    -0.04   0.00   0.10    -0.10   0.00  -0.06 
    14   1     0.28  -0.34  -0.20     0.08  -0.07  -0.09    -0.17   0.14   0.18 
    15   1     0.48   0.04   0.38     0.10   0.03   0.03    -0.19  -0.04  -0.15 
    16   1    -0.18   0.46   0.23     0.05   0.05   0.04     0.05  -0.21  -0.08 
    17   1    -0.06  -0.07   0.01     0.17   0.65  -0.16     0.05   0.15  -0.02 
    18   1     0.05  -0.01   0.09     0.28   0.09  -0.60     0.06   0.03  -0.17 
                     37                     38                     39 
                      A                      A                      A 
 Frequencies --      0.0000                 0.0000                 0.0000 
 Red. masses --      2.7625                 5.0529                 6.6728 
 Frc consts  --      0.1000                 0.1000                 0.1000
 IR Inten    --      1.0000                 1.0000                 1.0000
  Atom  AN      X      Y      Z        X      Y      Z        X      Y      Z 
     1   6    -0.09  -0.00   0.17    -0.09  -0.00  -0.15    -0.21  -0.00   0.27 
     2   6     0.09   0.00  -0.03     0.21   0.00   0.28     0.09  -0.00  -0.13 
     3   6    -0.08   0.00  -0.17     0.22   0.00   0.10     0.28   0.01  -0.14 
     4   1     0.28   0.00  -0.44    -0.18   0.00  -0.04     0.15   0.01  -0.35 
     5   6    -0.08  -0.00  -0.07    -0.23  -0.00  -0.12    -0.25   0.00   0.10 
     6   1     0.02  -0.00  -0.20    -0.18  -0.00  -0.41     0.18   0.00  -0.02 
     7   6     0.18  -0.00  -0.04    -0.15  -0.01  -0.21    -0.17   0.01   0.19 
     8   8     0.01  -0.00   0.05    -0.02  -0.00  -0.01    -0.01  -0.00   0.00 
     9   6    -0.07   0.00   0.16     0.05   0.00   0.14     0.22  -0.00  -0.28 
    10   1     0.32   0.00  -0.08     0.25  -0.00  -0.14     0.27   0.00   0.11 
    11   6    -0.05   0.00   0.01    -0.01  -0.02   0.05     0.04   0.01  -0.04 
    12   6    -0.02  -0.02   0.02    -0.01   0.01  -0.01    -0.00  -0.00   0.02 
    13   1     0.29  -0.01  -0.45     0.19  -0.00  -0.07    -0.16   0.01   0.39 
    14   1    -0.09   0.03   0.06     0.10  -0.01  -0.19    -0.01  -0.01   0.08 
    15   1    -0.06   0.00  -0.00     0.05   0.01   0.06    -0.01  -0.01  -0.05 
    16   1     0.06  -0.04   0.01     0.22   0.28  -0.27    -0.12  -0.11   0.08 
    17   1     0.08   0.23  -0.05    -0.00  -0.09   0.03    -0.02   0.01   0.02 
    18   1     0.09   0.02  -0.20     0.02   0.01   0.08     0.03   0.01  -0.05 
                     40                     41                     42 
                      A                      A                      A 
 Frequencies --      0.0000                 0.0000                 0.0000 
 Red. masses --      1.1443                 1.0530                 1.0565 
 Frc consts  --      0.1000                 0.1000                 0.1000
 IR Inten    --      1.0000                 1.0000                 1.0000
  Atom  AN      X      Y      Z        X      Y      Z        X      Y      Z 
     1   6    -0.00   0.00  -0.02    -0.00  -0.00   0.00     0.00  -0.00   0.00 
     2   6     0.01   0.00   0.03    -0.00  -0.00  -0.00    -0.00   0.00  -0.00 
     3   6     0.01  -0.00   0.01    -0.00   0.00  -0.00    -0.00   0.00  -0.00 
     4   1    -0.02   0.00   0.01     0.00  -0.00  -0.00    -0.00   0.00  -0.00 
     5   6    -0.02  -0.00  -0.01     0.00   0.00   0.00     0.00  -0.00  -0.00 
     6   1    -0.01   0.00  -0.02     0.00  -0.00  -0.00    -0.00   0.00   0.00 
     7   6    -0.02   0.01  -0.05     0.00  -0.00   0.00    -0.00  -0.00   0.00 
     8   8    -0.00  -0.00   0.00     0.00  -0.00   0.00    -0.00  -0.00   0.00 
     9   6     0.00   0.00   0.03     0.00   0.00   0.00    -0.00  -0.00   0.00 
    10   1     0.02  -0.00  -0.01     0.00   0.00   0.00     0.00   0.00  -0.00 
    11   6     0.02   0.03  -0.05     0.00  -0.00  -0.00     0.05  -0.04  -0.00 
    12   6     0.04  -0.00   0.01     0.00  -0.06   0.02    -0.00   0.00  -0.00 
    13   1     0.03  -0.00  -0.01    -0.00   0.00  -0.00     0.01   0.00   0.00 
    14   1     0.00  -0.07   0.11    -0.03  -0.02  -0.01    -0.41  -0.31  -0.20 
    15   1    -0.01   0.02  -0.05    -0.01   0.03   0.01    -0.23   0.77   0.21 
    16   1    -0.52  -0.43   0.70     0.01  -0.01   0.00     0.01  -0.01  -0.00 
    17   1    -0.07   0.04  -0.02     0.08  -0.15  -0.42    -0.00   0.01   0.02 
    18   1    -0.07  -0.00  -0.06    -0.09   0.87   0.14     0.00  -0.04  -0.01 
                     43                     44                     45 
                      A                      A                      A 
 Frequencies --      0.0000                 0.0000                 0.0000 
 Red. masses --      1.1076                 1.0875                 1.0895 
 Frc consts  --      0.1000                 0.1000                 0.1000
 IR Inten    --      1.0000                 1.0000                 1.0000
  Atom  AN      X      Y      Z        X      Y      Z        X      Y      Z 
     1   6     0.00  -0.00  -0.00    -0.01   0.00  -0.00     0.02  -0.00   0.01 
     2   6    -0.00   0.00   0.00     0.02  -0.00  -0.01    -0.06   0.00   0.03 
     3   6     0.00  -0.00  -0.00     0.00   0.00   0.00    -0.00  -0.00   0.00 
     4   1    -0.00  -0.00  -0.00     0.08  -0.00   0.05    -0.29   0.00  -0.17 
     5   6    -0.00   0.00  -0.00     0.00   0.00   0.04     0.00  -0.00  -0.03 
     6   1     0.00  -0.00  -0.00    -0.21   0.00   0.12     0.66  -0.00  -0.38 
     7   6     0.00  -0.00  -0.00    -0.00   0.00   0.00    -0.00   0.00   0.00 
     8   8     0.00  -0.00   0.00     0.00   0.00  -0.00    -0.00   0.00  -0.00 
     9   6     0.00   0.00   0.00    -0.06  -0.00  -0.04    -0.03  -0.00  -0.02 
    10   1    -0.00   0.00   0.01    -0.00  -0.01  -0.47    -0.00   0.00   0.33 
    11   6    -0.04  -0.08  -0.04    -0.00  -0.00  -0.00    -0.00  -0.00  -0.00 
    12   6     0.00  -0.00   0.00    -0.00  -0.00   0.00     0.00   0.00  -0.00 
    13   1    -0.02  -0.00  -0.01     0.72   0.00   0.42     0.38   0.00   0.22 
    14   1     0.63   0.45   0.30     0.02   0.01   0.01     0.01   0.00   0.00 
    15   1    -0.16   0.50   0.13    -0.00   0.01   0.00     0.00   0.00  -0.00 
    16   1    -0.00  -0.01   0.00     0.00   0.00  -0.00     0.00   0.00  -0.00 
    17   1     0.00  -0.00  -0.01     0.00  -0.00  -0.00     0.00  -0.00  -0.00 
    18   1    -0.00   0.00   0.00    -0.00   0.00   0.00    -0.00  -0.00  -0.00 
                     46                     47                     48 
                      A                      A                      A 
 Frequencies --      0.0000                 0.0000                 0.0000 
 Red. masses --      1.0942                 1.1123                 1.0981 
 Frc consts  --      0.1000                 0.1000                 0.1000
 IR Inten    --      1.0000                 1.0000                 1.0000
  Atom  AN      X      Y      Z        X      Y      Z        X      Y      Z 
     1   6     0.05  -0.00   0.03     0.00  -0.00   0.00    -0.05   0.00  -0.03 
     2   6    -0.02  -0.00   0.01    -0.00  -0.00   0.00    -0.04  -0.00   0.03 
     3   6    -0.00  -0.00   0.00    -0.00  -0.00   0.00     0.00   0.00  -0.00 
     4   1    -0.52   0.00  -0.31    -0.02   0.00  -0.01     0.61  -0.01   0.37 
     5   6    -0.00   0.00   0.06    -0.00   0.00   0.00     0.00   0.00   0.04 
     6   1     0.18  -0.00  -0.10     0.01  -0.00  -0.01     0.48  -0.00  -0.28 
     7   6     0.00   0.00  -0.00     0.00  -0.00   0.00     0.00  -0.00  -0.00 
     8   8     0.00  -0.00  -0.00    -0.00   0.00  -0.00    -0.00  -0.00   0.00 
     9   6     0.02   0.00   0.01     0.00   0.00   0.00     0.01   0.00   0.01 
    10   1    -0.00  -0.01  -0.71    -0.00  -0.00  -0.03    -0.00  -0.01  -0.39 
    11   6     0.00   0.00   0.00     0.00  -0.00   0.00     0.00   0.00   0.00 
    12   6    -0.00   0.00   0.00     0.02  -0.06  -0.08    -0.00   0.00   0.00 
    13   1    -0.24  -0.00  -0.14    -0.01  -0.00  -0.01    -0.12  -0.00  -0.06 
    14   1    -0.00  -0.00  -0.00     0.00   0.00   0.00    -0.00  -0.00  -0.00 
    15   1     0.00  -0.00   0.00    -0.00   0.01   0.00    -0.00   0.00   0.00 
    16   1    -0.00  -0.00   0.00     0.00  -0.00  -0.00    -0.00  -0.00   0.00 
    17   1     0.01  -0.01  -0.04    -0.12   0.28   0.84    -0.00  -0.00  -0.00 
    18   1     0.00  -0.02  -0.00    -0.05   0.42   0.05     0.00  -0.00  -0.00 
