    18  
step number 0
C	-1.609040	-0.084460	0.229640
C	-1.609110	-0.084400	1.617870
C	-0.401650	-0.085070	-0.456100
H	-2.531740	-0.076300	-0.338160
C	-0.406080	-0.067710	2.315230
H	-2.551120	-0.083530	2.154400
C	0.825080	-0.102420	0.222630
O	-0.439530	-0.098110	-1.826240
C	0.795840	-0.073220	1.618190
H	-0.402690	-0.052580	3.398830
C	2.085350	-0.166340	-0.554240
C	0.556870	0.666370	-2.442550
H	1.735960	-0.073920	2.160240
H	2.910450	0.446290	-0.199450
H	2.382690	-1.154790	-0.900790
H	1.554110	0.427660	-1.850140
H	0.667200	0.348240	-3.477110
H	0.385880	1.743030	-2.334390
    18  
step number 1
C	-1.609050	-0.084450	0.229620
C	-1.609110	-0.084400	1.617890
C	-0.401650	-0.084990	-0.455940
H	-2.531780	-0.076320	-0.338130
C	-0.406100	-0.067700	2.315230
H	-2.551130	-0.083560	2.154390
C	0.825050	-0.102500	0.222780
O	-0.439270	-0.098050	-1.826350
C	0.795820	-0.073290	1.618170
H	-0.402730	-0.052530	3.398840
C	2.084890	-0.165690	-0.555770
C	0.556170	0.666310	-2.442650
H	1.735950	-0.073940	2.160210
H	2.910200	0.445630	-0.198730
H	2.383250	-1.155560	-0.897910
H	1.560880	0.422410	-1.838190
H	0.668800	0.347530	-3.476690
H	0.387760	1.743100	-2.332800
    18  
step number 2
C	-1.609060	-0.084440	0.229610
C	-1.609110	-0.084400	1.617900
C	-0.401660	-0.084900	-0.455780
H	-2.531820	-0.076330	-0.338100
C	-0.406120	-0.067690	2.315230
H	-2.551140	-0.083570	2.154380
C	0.825020	-0.102570	0.222930
O	-0.439010	-0.098000	-1.826460
C	0.795810	-0.073350	1.618150
H	-0.402780	-0.052490	3.398840
C	2.084480	-0.165080	-0.557190
C	0.555430	0.666280	-2.442810
H	1.735950	-0.073960	2.160180
H	2.909980	0.444980	-0.198010
H	2.383780	-1.156270	-0.895220
H	1.568140	0.417190	-1.826250
H	0.670240	0.346870	-3.476340
H	0.389520	1.743160	-2.331300
    18  
step number 3
C	-1.609070	-0.084430	0.229590
C	-1.609110	-0.084400	1.617910
C	-0.401660	-0.084830	-0.455630
H	-2.531860	-0.076350	-0.338070
C	-0.406150	-0.067690	2.315230
H	-2.551150	-0.083590	2.154370
C	0.824990	-0.102640	0.223070
O	-0.438760	-0.097960	-1.826560
C	0.795790	-0.073410	1.618140
H	-0.402820	-0.052450	3.398850
C	2.084090	-0.164510	-0.558530
C	0.554650	0.666280	-2.443030
H	1.735950	-0.073980	2.160150
H	2.909790	0.444340	-0.197300
H	2.384270	-1.156940	-0.892680
H	1.575810	0.412000	-1.814340
H	0.671550	0.346250	-3.476040
H	0.391170	1.743220	-2.329870
    18  
step number 4
C	-1.609080	-0.084430	0.229580
C	-1.609110	-0.084400	1.617930
C	-0.401650	-0.084760	-0.455490
H	-2.531890	-0.076360	-0.338050
C	-0.406160	-0.067680	2.315240
H	-2.551160	-0.083610	2.154360
C	0.824970	-0.102710	0.223210
O	-0.438520	-0.097910	-1.826660
C	0.795770	-0.073460	1.618120
H	-0.402860	-0.052410	3.398850
C	2.083730	-0.163970	-0.559800
C	0.553840	0.666300	-2.443290
H	1.735940	-0.073990	2.160120
H	2.909610	0.443710	-0.196590
H	2.384750	-1.157580	-0.890260
H	1.583770	0.406830	-1.802480
H	0.672750	0.345670	-3.475780
H	0.392740	1.743280	-2.328510
    18  
step number 5
C	-1.609080	-0.084420	0.229560
C	-1.609110	-0.084390	1.617940
C	-0.401650	-0.084690	-0.455360
H	-2.531930	-0.076370	-0.338020
C	-0.406180	-0.067670	2.315240
H	-2.551160	-0.083630	2.154350
C	0.824940	-0.102770	0.223340
O	-0.438280	-0.097870	-1.826750
C	0.795750	-0.073510	1.618110
H	-0.402910	-0.052380	3.398860
C	2.083390	-0.163450	-0.561010
C	0.553010	0.666340	-2.443590
H	1.735940	-0.074000	2.160090
H	2.909450	0.443080	-0.195870
H	2.385200	-1.158190	-0.887940
H	1.591950	0.401670	-1.790630
H	0.673850	0.345120	-3.475570
H	0.394230	1.743340	-2.327200
    18  
step number 6
C	-1.609090	-0.084420	0.229550
C	-1.609110	-0.084390	1.617950
C	-0.401640	-0.084630	-0.455230
H	-2.531960	-0.076390	-0.338000
C	-0.406200	-0.067670	2.315240
H	-2.551170	-0.083640	2.154340
C	0.824920	-0.102830	0.223470
O	-0.438050	-0.097830	-1.826830
C	0.795730	-0.073560	1.618090
H	-0.402950	-0.052350	3.398860
C	2.083070	-0.162960	-0.562160
C	0.552150	0.666400	-2.443920
H	1.735940	-0.074010	2.160060
H	2.909300	0.442460	-0.195150
H	2.385640	-1.158770	-0.885700
H	1.600330	0.396540	-1.778820
H	0.674870	0.344600	-3.475380
H	0.395670	1.743400	-2.325940
    18  
step number 7
C	-1.609090	-0.084410	0.229540
C	-1.609110	-0.084390	1.617960
C	-0.401640	-0.084570	-0.455100
H	-2.531990	-0.076400	-0.337980
C	-0.406220	-0.067670	2.315240
H	-2.551170	-0.083650	2.154340
C	0.824900	-0.102880	0.223590
O	-0.437820	-0.097790	-1.826910
C	0.795710	-0.073610	1.618080
H	-0.402990	-0.052320	3.398870
C	2.082770	-0.162480	-0.563280
C	0.551270	0.666470	-2.444280
H	1.735930	-0.074020	2.160040
H	2.909170	0.441830	-0.194420
H	2.386060	-1.159330	-0.883520
H	1.608910	0.391430	-1.767080
H	0.675820	0.344100	-3.475220
H	0.397070	1.743460	-2.324700
    18  
step number 8
C	-1.609100	-0.084400	0.229520
C	-1.609110	-0.084390	1.617970
C	-0.401630	-0.084510	-0.454980
H	-2.532020	-0.076410	-0.337950
C	-0.406240	-0.067660	2.315240
H	-2.551180	-0.083670	2.154330
C	0.824870	-0.102940	0.223720
O	-0.437590	-0.097750	-1.826990
C	0.795690	-0.073650	1.618070
H	-0.403030	-0.052290	3.398870
C	2.082480	-0.162030	-0.564360
C	0.550360	0.666550	-2.444670
H	1.735930	-0.074020	2.160010
H	2.909050	0.441200	-0.193680
H	2.386480	-1.159890	-0.881380
H	1.617650	0.386320	-1.755430
H	0.676730	0.343620	-3.475080
H	0.398430	1.743510	-2.323490
    18  
step number 9
C	-1.609090	-0.084390	0.229510
C	-1.609100	-0.084390	1.617990
C	-0.401600	-0.084450	-0.454870
H	-2.532080	-0.076430	-0.337940
C	-0.406260	-0.067660	2.315240
H	-2.551130	-0.083680	2.154310
C	0.824840	-0.102990	0.223820
O	-0.437360	-0.097710	-1.827050
C	0.795660	-0.073690	1.618070
H	-0.403070	-0.052270	3.398820
C	2.082210	-0.161580	-0.565410
C	0.549430	0.666650	-2.445080
H	1.735870	-0.074030	2.159960
H	2.908920	0.440550	-0.192920
H	2.386890	-1.160430	-0.879250
H	1.626530	0.381240	-1.743850
H	0.677580	0.343160	-3.474930
H	0.399770	1.743570	-2.322290
    18  
step number 10
C	0.000000	0.000000	0.000000
C	0.000000	0.000000	1.388450
C	1.207470	0.000000	-0.684220
H	-0.922980	0.007950	-0.567400
C	1.202860	0.016740	2.085720
H	-0.942080	0.000700	1.924780
C	2.433910	-0.018650	-0.005500
O	1.171930	-0.013290	-2.056640
C	2.404790	0.010650	1.388530
H	1.206020	0.032150	3.169350
C	3.691080	-0.076760	-0.795870
C	2.157530	0.751150	-2.675050
H	3.345060	0.010360	1.930430
H	4.517940	0.524280	-0.421570
H	3.996410	-1.076580	-1.106620
H	3.244690	0.460560	-1.961790
H	2.287480	0.427070	-3.704370
H	2.010130	1.828010	-2.550650
    18  
step number 11
C	-1.609110	-0.084390	0.229480
C	-1.609100	-0.084390	1.618000
C	-0.401580	-0.084330	-0.454630
H	-2.532140	-0.076450	-0.337900
C	-0.406290	-0.067650	2.315240
H	-2.551140	-0.083700	2.154290
C	0.824780	-0.103090	0.224080
O	-0.436910	-0.097650	-1.827190
C	0.795630	-0.073780	1.618050
H	-0.403150	-0.052220	3.398830
C	2.081720	-0.160730	-0.567410
C	0.547510	0.666880	-2.445980
H	1.735870	-0.074040	2.159910
H	2.908730	0.439220	-0.191310
H	2.387710	-1.161500	-0.875060
H	1.644620	0.371110	-1.720860
H	0.679210	0.342250	-3.474740
H	0.402400	1.743680	-2.319920
    18  
step number 12
C	-1.609130	-0.084390	0.229470
C	-1.609110	-0.084390	1.618000
C	-0.401590	-0.084270	-0.454500
H	-2.532150	-0.076470	-0.337870
C	-0.406290	-0.067640	2.315250
H	-2.551200	-0.083710	2.154290
C	0.824760	-0.103140	0.224230
O	-0.436690	-0.097620	-1.827270
C	0.795630	-0.073820	1.618020
H	-0.403180	-0.052190	3.398890
C	2.081500	-0.160320	-0.568370
C	0.546530	0.667010	-2.446470
H	1.735920	-0.074040	2.159910
H	2.908660	0.438550	-0.190480
H	2.388120	-1.162040	-0.872980
H	1.653810	0.366110	-1.709440
H	0.679980	0.341810	-3.474700
H	0.403690	1.743740	-2.318750
    18  
step number 13
C	-1.609140	-0.084390	0.229460
C	-1.609120	-0.084380	1.618000
C	-0.401580	-0.084220	-0.454390
H	-2.532190	-0.076490	-0.337850
C	-0.406300	-0.067640	2.315260
H	-2.551210	-0.083720	2.154280
C	0.824730	-0.103180	0.224350
O	-0.436470	-0.097590	-1.827340
C	0.795620	-0.073870	1.618010
H	-0.403210	-0.052170	3.398900
C	2.081300	-0.159930	-0.569290
C	0.545530	0.667150	-2.446980
H	1.735930	-0.074040	2.159890
H	2.908580	0.437850	-0.189620
H	2.388530	-1.162570	-0.870910
H	1.663120	0.361170	-1.698080
H	0.680720	0.341380	-3.474640
H	0.404970	1.743790	-2.317580
    18  
step number 14
C	-1.609150	-0.084390	0.229450
C	-1.609120	-0.084380	1.618000
C	-0.401570	-0.084160	-0.454270
H	-2.532220	-0.076500	-0.337830
C	-0.406310	-0.067640	2.315260
H	-2.551220	-0.083720	2.154270
C	0.824700	-0.103230	0.224480
O	-0.436250	-0.097560	-1.827410
C	0.795610	-0.073910	1.618000
H	-0.403250	-0.052150	3.398910
C	2.081110	-0.159550	-0.570200
C	0.544500	0.667300	-2.447520
H	1.735930	-0.074040	2.159860
H	2.908510	0.437130	-0.188710
H	2.388930	-1.163100	-0.868820
H	1.672540	0.356270	-1.686800
H	0.681440	0.340970	-3.474600
H	0.406260	1.743850	-2.316410
    18  
step number 15
C	-1.609160	-0.084390	0.229430
C	-1.609120	-0.084380	1.618010
C	-0.401560	-0.084100	-0.454160
H	-2.532250	-0.076520	-0.337810
C	-0.406320	-0.067640	2.315270
H	-2.551230	-0.083730	2.154260
C	0.824660	-0.103270	0.224600
O	-0.436020	-0.097540	-1.827470
C	0.795590	-0.073950	1.617980
H	-0.403280	-0.052130	3.398920
C	2.080940	-0.159180	-0.571070
C	0.543440	0.667460	-2.448070
H	1.735930	-0.074030	2.159840
H	2.908440	0.436380	-0.187750
H	2.389350	-1.163640	-0.866680
H	1.682040	0.351400	-1.675620
H	0.682150	0.340550	-3.474580
H	0.407560	1.743910	-2.315220
    18  
step number 16
C	-1.609170	-0.084390	0.229420
C	-1.609120	-0.084380	1.618010
C	-0.401540	-0.084040	-0.454050
H	-2.532290	-0.076540	-0.337790
C	-0.406330	-0.067630	2.315270
H	-2.551240	-0.083740	2.154250
C	0.824630	-0.103310	0.224720
O	-0.435800	-0.097510	-1.827530
C	0.795580	-0.073990	1.617970
H	-0.403310	-0.052110	3.398920
C	2.080790	-0.158820	-0.571920
C	0.542340	0.667640	-2.448660
H	1.735940	-0.074030	2.159820
H	2.908390	0.435590	-0.186730
H	2.389770	-1.164190	-0.864510
H	1.691630	0.346580	-1.664530
H	0.682840	0.340140	-3.474570
H	0.408870	1.743970	-2.314010
    18  
step number 17
C	-1.609180	-0.084380	0.229410
C	-1.609130	-0.084370	1.618020
C	-0.401520	-0.083980	-0.453940
H	-2.532320	-0.076550	-0.337770
C	-0.406340	-0.067630	2.315270
H	-2.551240	-0.083740	2.154240
C	0.824590	-0.103350	0.224840
O	-0.435560	-0.097490	-1.827600
C	0.795570	-0.074040	1.617960
H	-0.403350	-0.052090	3.398930
C	2.080650	-0.158480	-0.572740
C	0.541210	0.667820	-2.449280
H	1.735940	-0.074020	2.159790
H	2.908350	0.434760	-0.185640
H	2.390210	-1.164750	-0.862270
H	1.701330	0.341840	-1.653570
H	0.683520	0.339720	-3.474570
H	0.410210	1.744040	-2.312780
    18  
step number 18
C	-1.609190	-0.084380	0.229400
C	-1.609130	-0.084370	1.618020
C	-0.401500	-0.083920	-0.453820
H	-2.532350	-0.076570	-0.337750
C	-0.406350	-0.067630	2.315280
H	-2.551250	-0.083740	2.154230
C	0.824540	-0.103390	0.224970
O	-0.435330	-0.097460	-1.827660
C	0.795560	-0.074080	1.617950
H	-0.403390	-0.052070	3.398930
C	2.080550	-0.158150	-0.573530
C	0.540030	0.668020	-2.449930
H	1.735940	-0.074020	2.159770
H	2.908310	0.433880	-0.184460
H	2.390650	-1.165340	-0.859950
H	1.711160	0.337180	-1.642800
H	0.684200	0.339310	-3.474590
H	0.411580	1.744110	-2.311500
    18  
step number 19
C	-1.609210	-0.084380	0.229380
C	-1.609130	-0.084370	1.618030
C	-0.401470	-0.083850	-0.453700
H	-2.532390	-0.076590	-0.337740
C	-0.406360	-0.067630	2.315280
H	-2.551260	-0.083750	2.154220
C	0.824490	-0.103430	0.225090
O	-0.435080	-0.097440	-1.827720
C	0.795550	-0.074130	1.617940
H	-0.403420	-0.052050	3.398940
C	2.080470	-0.157840	-0.574290
C	0.538790	0.668240	-2.450630
H	1.735950	-0.074010	2.159750
H	2.908290	0.432930	-0.183180
H	2.391120	-1.165940	-0.857520
H	1.721150	0.332610	-1.632270
H	0.684890	0.338880	-3.474630
H	0.413010	1.744180	-2.310190
    18  
step number 20
C	-1.609220	-0.084380	0.229370
C	-1.609130	-0.084360	1.618030
C	-0.401450	-0.083780	-0.453580
H	-2.532420	-0.076610	-0.337720
C	-0.406370	-0.067620	2.315280
H	-2.551260	-0.083750	2.154220
C	0.824440	-0.103460	0.225220
O	-0.434820	-0.097420	-1.827780
C	0.795540	-0.074180	1.617940
H	-0.403460	-0.052030	3.398940
C	2.080420	-0.157550	-0.575000
C	0.537480	0.668470	-2.451370
H	1.735950	-0.074000	2.159730
H	2.908290	0.431910	-0.181770
H	2.391610	-1.166580	-0.854960
H	1.731310	0.328180	-1.622020
H	0.685570	0.338460	-3.474690
H	0.414490	1.744260	-2.308810
